
.Version 8.0.8 of ABINIT 
.(sequential version, prepared for a x86_64_linux_gnu4.9 computer) 

.Copyright (C) 1998-2016 ABINIT group . 
 ABINIT comes with ABSOLUTELY NO WARRANTY.
 It is free software, and you are welcome to redistribute it
 under certain conditions (GNU General Public License,
 see ~abinit/COPYING or http://www.gnu.org/copyleft/gpl.txt).

 ABINIT is a project of the Universite Catholique de Louvain,
 Corning Inc. and other collaborators, see ~abinit/doc/developers/contributors.txt .
 Please read ~abinit/doc/users/acknowledgments.html for suggested
 acknowledgments of the ABINIT effort.
 For more information, see http://www.abinit.org .

.Starting date : Wed 27 Jul 2016.
- ( at 09h50 )
  
- input  file    -> ./H2.in
- output file    -> H2.out
- root for input  files -> H2_i
- root for output files -> H2_o


 DATASET    1 : space group P4/m m m (#123); Bravais tP (primitive tetrag.)
================================================================================
 Values of the parameters that define the memory need for DATASET  1.
     intxc =       0    ionmov =       3      iscf =       7    lmnmax =       1
     lnmax =       1     mgfft =      30  mpssoang =       1    mqgrid =    3001
     natom =       2  nloc_mem =       1    nspden =       1   nspinor =       1
    nsppol =       1      nsym =      16    n1xccc =       0    ntypat =       1
    occopt =       1   xclevel =       1
-    mband =           1        mffmem =           1         mkmem =           1
       mpw =         752          nfft =       27000          nkpt =           1
================================================================================
P This job should need less than                       7.888 Mbytes of memory.
  Rough estimation (10% accuracy) of disk space for files :
_ WF disk file :      0.013 Mbytes ; DEN or POT disk file :      0.208 Mbytes.
================================================================================


 DATASET    2 : space group Pm -3 m (#221); Bravais cP (primitive cubic)
================================================================================
 Values of the parameters that define the memory need for DATASET  2.
     intxc =       0    ionmov =       0      iscf =       7    lmnmax =       1
     lnmax =       1     mgfft =      30  mpssoang =       1    mqgrid =    3001
     natom =       1  nloc_mem =       1    nspden =       2   nspinor =       1
    nsppol =       2      nsym =      48    n1xccc =       0    ntypat =       1
    occopt =       2   xclevel =       1
-    mband =           1        mffmem =           1         mkmem =           1
       mpw =         752          nfft =       27000          nkpt =           1
================================================================================
P This job should need less than                      12.011 Mbytes of memory.
  Rough estimation (10% accuracy) of disk space for files :
_ WF disk file :      0.025 Mbytes ; DEN or POT disk file :      0.414 Mbytes.
================================================================================

--------------------------------------------------------------------------------
------------- Echo of variables that govern the present computation ------------
--------------------------------------------------------------------------------
-
- outvars: echo of selected default values                                      
-   iomode0 =  0 , fftalg0 =112 , wfoptalg0 =  0
-
- outvars: echo of global parameters not present in the input file              
-  max_nthreads =    0
-
 -outvars: echo values of preprocessed input variables --------
            acell      1.0000000000E+01  1.0000000000E+01  1.0000000000E+01 Bohr
              amu      1.00794000E+00
        bs_loband1          0
        bs_loband2          0       0
           diemac      2.00000000E+00
             ecut      1.00000000E+01 Hartree
-          fftalg         112
           ionmov1          3
           ionmov2          0
           istwfk        2
           jdtset        1    2
           kptopt           0
P           mkmem           1
            natom1          2
            natom2          1
            nband1          1
            nband2          1       1
           ndtset           2
            ngfft          30      30      30
             nkpt           1
           nspden1          1
           nspden2          2
           nsppol1          1
           nsppol2          2
            nstep          10
             nsym1         16
             nsym2         48
            ntime1         10
            ntime2          1
           ntypat           1
              occ1     2.000000
              occ2     1.000000
                       0.000000
           occopt1          1
           occopt2          2
        optforces           1
          spgroup1        123
          spgroup2        221
           spinat2     0.0000000000E+00  0.0000000000E+00  1.0000000000E+00
           symafm1       1    1    1    1    1    1    1    1    1    1
                         1    1    1    1    1    1
           symafm2       1    1    1    1    1    1    1    1    1    1
                         1    1    1    1    1    1    1    1    1    1
                         1    1    1    1    1    1    1    1    1    1
                         1    1    1    1    1    1    1    1    1    1
                         1    1    1    1    1    1    1    1
           symrel1     1  0  0   0  1  0   0  0  1      -1  0  0   0 -1  0   0  0 -1
                      -1  0  0   0  1  0   0  0 -1       1  0  0   0 -1  0   0  0  1
                      -1  0  0   0 -1  0   0  0  1       1  0  0   0  1  0   0  0 -1
                       1  0  0   0 -1  0   0  0 -1      -1  0  0   0  1  0   0  0  1
                       1  0  0   0  0  1   0  1  0      -1  0  0   0  0 -1   0 -1  0
                      -1  0  0   0  0  1   0 -1  0       1  0  0   0  0 -1   0  1  0
                      -1  0  0   0  0 -1   0  1  0       1  0  0   0  0  1   0 -1  0
                       1  0  0   0  0 -1   0 -1  0      -1  0  0   0  0  1   0  1  0
           symrel2     1  0  0   0  1  0   0  0  1      -1  0  0   0 -1  0   0  0 -1
                      -1  0  0   0  1  0   0  0 -1       1  0  0   0 -1  0   0  0  1
                      -1  0  0   0 -1  0   0  0  1       1  0  0   0  1  0   0  0 -1
                       1  0  0   0 -1  0   0  0 -1      -1  0  0   0  1  0   0  0  1
                       0  1  0   1  0  0   0  0  1       0 -1  0  -1  0  0   0  0 -1
                       0 -1  0   1  0  0   0  0 -1       0  1  0  -1  0  0   0  0  1
                       0 -1  0  -1  0  0   0  0  1       0  1  0   1  0  0   0  0 -1
                       0  1  0  -1  0  0   0  0 -1       0 -1  0   1  0  0   0  0  1
                       0  0  1   1  0  0   0  1  0       0  0 -1  -1  0  0   0 -1  0
                       0  0 -1   1  0  0   0 -1  0       0  0  1  -1  0  0   0  1  0
                       0  0 -1  -1  0  0   0  1  0       0  0  1   1  0  0   0 -1  0
                       0  0  1  -1  0  0   0 -1  0       0  0 -1   1  0  0   0  1  0
                       1  0  0   0  0  1   0  1  0      -1  0  0   0  0 -1   0 -1  0
                      -1  0  0   0  0  1   0 -1  0       1  0  0   0  0 -1   0  1  0
                      -1  0  0   0  0 -1   0  1  0       1  0  0   0  0  1   0 -1  0
                       1  0  0   0  0 -1   0 -1  0      -1  0  0   0  0  1   0  1  0
                       0  1  0   0  0  1   1  0  0       0 -1  0   0  0 -1  -1  0  0
                       0 -1  0   0  0  1  -1  0  0       0  1  0   0  0 -1   1  0  0
                       0 -1  0   0  0 -1   1  0  0       0  1  0   0  0  1  -1  0  0
                       0  1  0   0  0 -1  -1  0  0       0 -1  0   0  0  1   1  0  0
                       0  0  1   0  1  0   1  0  0       0  0 -1   0 -1  0  -1  0  0
                       0  0 -1   0  1  0  -1  0  0       0  0  1   0 -1  0   1  0  0
                       0  0 -1   0 -1  0   1  0  0       0  0  1   0  1  0  -1  0  0
                       0  0  1   0 -1  0  -1  0  0       0  0 -1   0  1  0   1  0  0
            tnons1     0.0000000  0.0000000  0.0000000     0.0000000  0.0000000  0.0000000
                       0.0000000  0.0000000  0.0000000     0.0000000  0.0000000  0.0000000
                       0.0000000  0.0000000  0.0000000     0.0000000  0.0000000  0.0000000
                       0.0000000  0.0000000  0.0000000     0.0000000  0.0000000  0.0000000
                       0.0000000  0.0000000  0.0000000     0.0000000  0.0000000  0.0000000
                       0.0000000  0.0000000  0.0000000     0.0000000  0.0000000  0.0000000
                       0.0000000  0.0000000  0.0000000     0.0000000  0.0000000  0.0000000
                       0.0000000  0.0000000  0.0000000     0.0000000  0.0000000  0.0000000
            tnons2     0.0000000  0.0000000  0.0000000     0.0000000  0.0000000  0.0000000
                       0.0000000  0.0000000  0.0000000     0.0000000  0.0000000  0.0000000
                       0.0000000  0.0000000  0.0000000     0.0000000  0.0000000  0.0000000
                       0.0000000  0.0000000  0.0000000     0.0000000  0.0000000  0.0000000
                       0.0000000  0.0000000  0.0000000     0.0000000  0.0000000  0.0000000
                       0.0000000  0.0000000  0.0000000     0.0000000  0.0000000  0.0000000
                       0.0000000  0.0000000  0.0000000     0.0000000  0.0000000  0.0000000
                       0.0000000  0.0000000  0.0000000     0.0000000  0.0000000  0.0000000
                       0.0000000  0.0000000  0.0000000     0.0000000  0.0000000  0.0000000
                       0.0000000  0.0000000  0.0000000     0.0000000  0.0000000  0.0000000
                       0.0000000  0.0000000  0.0000000     0.0000000  0.0000000  0.0000000
                       0.0000000  0.0000000  0.0000000     0.0000000  0.0000000  0.0000000
                       0.0000000  0.0000000  0.0000000     0.0000000  0.0000000  0.0000000
                       0.0000000  0.0000000  0.0000000     0.0000000  0.0000000  0.0000000
                       0.0000000  0.0000000  0.0000000     0.0000000  0.0000000  0.0000000
                       0.0000000  0.0000000  0.0000000     0.0000000  0.0000000  0.0000000
                       0.0000000  0.0000000  0.0000000     0.0000000  0.0000000  0.0000000
                       0.0000000  0.0000000  0.0000000     0.0000000  0.0000000  0.0000000
                       0.0000000  0.0000000  0.0000000     0.0000000  0.0000000  0.0000000
                       0.0000000  0.0000000  0.0000000     0.0000000  0.0000000  0.0000000
                       0.0000000  0.0000000  0.0000000     0.0000000  0.0000000  0.0000000
                       0.0000000  0.0000000  0.0000000     0.0000000  0.0000000  0.0000000
                       0.0000000  0.0000000  0.0000000     0.0000000  0.0000000  0.0000000
                       0.0000000  0.0000000  0.0000000     0.0000000  0.0000000  0.0000000
           toldfe1     0.00000000E+00 Hartree
           toldfe2     1.00000000E-06 Hartree
           toldff1     5.00000000E-05
           toldff2     0.00000000E+00
           tolmxf1     5.00000000E-04
           tolmxf2     5.00000000E-05
            typat1     1  1
            typat2     1
           xangst1    -3.7042404601E-01  0.0000000000E+00  0.0000000000E+00
                       3.7042404601E-01  0.0000000000E+00  0.0000000000E+00
           xangst2     0.0000000000E+00  0.0000000000E+00  0.0000000000E+00
            xcart1    -7.0000000000E-01  0.0000000000E+00  0.0000000000E+00
                       7.0000000000E-01  0.0000000000E+00  0.0000000000E+00
            xcart2     0.0000000000E+00  0.0000000000E+00  0.0000000000E+00
             xred1    -7.0000000000E-02  0.0000000000E+00  0.0000000000E+00
                       7.0000000000E-02  0.0000000000E+00  0.0000000000E+00
             xred2     0.0000000000E+00  0.0000000000E+00  0.0000000000E+00
            znucl        1.00000

================================================================================

 chkinp: Checking input parameters for consistency, jdtset=   1.

 chkinp: Checking input parameters for consistency, jdtset=   2.

================================================================================
== DATASET  1 ==================================================================
-   nproc =    1

 Exchange-correlation functional for the present dataset will be:
  LDA: new Teter (4/93) with spin-polarized option - ixc=1
 Citation for XC functional:
  S. Goedecker, M. Teter, J. Huetter, PRB 54, 1703 (1996)

 Real(R)+Recip(G) space primitive vectors, cartesian coordinates (Bohr,Bohr^-1):
 R(1)= 10.0000000  0.0000000  0.0000000  G(1)=  0.1000000  0.0000000  0.0000000
 R(2)=  0.0000000 10.0000000  0.0000000  G(2)=  0.0000000  0.1000000  0.0000000
 R(3)=  0.0000000  0.0000000 10.0000000  G(3)=  0.0000000  0.0000000  0.1000000
 Unit cell volume ucvol=  1.0000000E+03 bohr^3
 Angles (23,13,12)=  9.00000000E+01  9.00000000E+01  9.00000000E+01 degrees

 getcut: wavevector=  0.0000  0.0000  0.0000  ngfft=  30  30  30
         ecut(hartree)=     10.000   => boxcut(ratio)=   2.10744

--- Pseudopotential description ------------------------------------------------
- pspini: atom type   1  psp file is ./01h.pspgth
- pspatm: opening atomic psp file    ./01h.pspgth
- Goedecker-Teter-Hutter  Wed May  8 14:27:44 EDT 1996
-  1.00000   1.00000    960508                znucl, zion, pspdat
    2    1    0    0      2001   0.00000      pspcod,pspxc,lmax,lloc,mmax,r2well
 rloc=   0.2000000
  cc1=  -4.0663326; cc2=   0.6778322; cc3=   0.0000000; cc4=   0.0000000
  rrs=   0.0000000; h1s=   0.0000000; h2s=   0.0000000
  rrp=   0.0000000; h1p=   0.0000000
-  Local part computed in reciprocal space.

 pspatm : COMMENT -
  the projectors are not normalized,
  so that the KB energies are not consistent with 
  definition in PRB44, 8503 (1991). 
  However, this does not influence the results obtained hereafter.
 pspatm: epsatm=   -0.00480358
         --- l  ekb(1:nproj) -->
 pspatm: atomic psp has been read  and splines computed

  -1.92143215E-02                                ecore*ucvol(ha*bohr**3)
--------------------------------------------------------------------------------

_setup2: Arith. and geom. avg. npw (full set) are    1503.000    1503.000

================================================================================

=== [ionmov= 3] Broyden-Fletcher-Goldfard-Shanno method (forces,Tot energy) 
================================================================================

--- Iteration: ( 1/10) Internal Cycle: (1/1)
--------------------------------------------------------------------------------

---SELF-CONSISTENT-FIELD CONVERGENCE--------------------------------------------

     iter   Etot(hartree)      deltaE(h)  residm     vres2    diffor    maxfor
 ETOT  1  -1.1013590048942    -1.101E+00 2.790E-06 8.389E+00 2.480E-02 2.480E-02
 ETOT  2  -1.1036942492547    -2.335E-03 6.079E-10 2.843E-01 1.302E-02 3.782E-02
 ETOT  3  -1.1037171066576    -2.286E-05 1.947E-08 1.545E-02 1.194E-03 3.662E-02
 ETOT  4  -1.1037223545264    -5.248E-06 3.080E-08 2.641E-04 8.484E-04 3.747E-02
 ETOT  5  -1.1037224211663    -6.664E-08 3.790E-10 8.035E-06 6.596E-05 3.740E-02
 ETOT  6  -1.1037224213119    -1.456E-10 1.920E-13 3.970E-07 1.754E-06 3.741E-02
 ETOT  7  -1.1037224213379    -2.604E-11 9.259E-14 9.779E-09 1.418E-06 3.740E-02

 At SCF step    7, forces are converged : 
  for the second time, max diff in force=  1.418E-06 < toldff=  5.000E-05

 Cartesian components of stress tensor (hartree/bohr^3)
  sigma(1 1)= -1.64354976E-05  sigma(3 2)=  0.00000000E+00
  sigma(2 2)=  3.60114991E-05  sigma(3 1)=  0.00000000E+00
  sigma(3 3)=  3.60114991E-05  sigma(2 1)=  0.00000000E+00

 Integrated electronic density in atomic spheres:
 ------------------------------------------------
 Atom  Sphere_radius  Integrated_density
    1        2.00000          1.44122005
    2        2.00000          1.44122005

---OUTPUT-----------------------------------------------------------------------

 Cartesian coordinates (xcart) [bohr]
 -7.00000000000000E-01  0.00000000000000E+00  0.00000000000000E+00
  7.00000000000000E-01  0.00000000000000E+00  0.00000000000000E+00
 Reduced coordinates (xred)
 -7.00000000000000E-02  0.00000000000000E+00  0.00000000000000E+00
  7.00000000000000E-02  0.00000000000000E+00  0.00000000000000E+00
 Cartesian forces (fcart) [Ha/bohr]; max,rms= 3.74043E-02 2.15954E-02 (free atoms)
 -3.74042929459289E-02 -0.00000000000000E+00 -0.00000000000000E+00
  3.74042929459289E-02 -0.00000000000000E+00 -0.00000000000000E+00
 Reduced forces (fred)
  3.74042929459289E-01  0.00000000000000E+00  0.00000000000000E+00
 -3.74042929459289E-01  0.00000000000000E+00  0.00000000000000E+00
 Total energy (etotal) [Ha]= -1.10372242133792E+00

--- Iteration: ( 2/10) Internal Cycle: (1/1)
--------------------------------------------------------------------------------

---SELF-CONSISTENT-FIELD CONVERGENCE--------------------------------------------

     iter   Etot(hartree)      deltaE(h)  residm     vres2    diffor    maxfor
 ETOT  1  -1.1055395556802    -1.106E+00 2.497E-10 4.973E-02 2.480E-02 1.261E-02
 ETOT  2  -1.1055522370018    -1.268E-05 3.023E-12 1.330E-03 2.024E-04 1.240E-02
 ETOT  3  -1.1055525240950    -2.871E-07 2.475E-09 2.405E-04 2.101E-04 1.261E-02
 ETOT  4  -1.1055525566531    -3.256E-08 1.770E-10 5.268E-06 5.187E-05 1.256E-02
 ETOT  5  -1.1055525570209    -3.678E-10 3.130E-13 8.758E-08 2.693E-06 1.257E-02
 ETOT  6  -1.1055525570220    -1.124E-12 9.726E-16 1.992E-09 9.891E-08 1.257E-02

 At SCF step    6, forces are converged : 
  for the second time, max diff in force=  9.891E-08 < toldff=  5.000E-05

 Cartesian components of stress tensor (hartree/bohr^3)
  sigma(1 1)=  2.14754028E-05  sigma(3 2)=  0.00000000E+00
  sigma(2 2)=  3.50015519E-05  sigma(3 1)=  0.00000000E+00
  sigma(3 3)=  3.50015519E-05  sigma(2 1)=  0.00000000E+00

 Integrated electronic density in atomic spheres:
 ------------------------------------------------
 Atom  Sphere_radius  Integrated_density
    1        2.00000          1.40704092
    2        2.00000          1.40704092

---OUTPUT-----------------------------------------------------------------------

 Cartesian coordinates (xcart) [bohr]
 -7.37404292945929E-01  0.00000000000000E+00  0.00000000000000E+00
  7.37404292945929E-01  0.00000000000000E+00  0.00000000000000E+00
 Reduced coordinates (xred)
 -7.37404292945929E-02  0.00000000000000E+00  0.00000000000000E+00
  7.37404292945929E-02  0.00000000000000E+00  0.00000000000000E+00
 Cartesian forces (fcart) [Ha/bohr]; max,rms= 1.25652E-02 7.25449E-03 (free atoms)
 -1.25651504937954E-02 -0.00000000000000E+00 -0.00000000000000E+00
  1.25651504937954E-02 -0.00000000000000E+00 -0.00000000000000E+00
 Reduced forces (fred)
  1.25651504937954E-01  0.00000000000000E+00  0.00000000000000E+00
 -1.25651504937954E-01  0.00000000000000E+00  0.00000000000000E+00
 Total energy (etotal) [Ha]= -1.10555255702201E+00

 Difference of energy with previous step (new-old):
           Absolute (Ha)=-1.83014E-03
           Relative     =-1.65677E-03

--- Iteration: ( 3/10) Internal Cycle: (1/1)
--------------------------------------------------------------------------------

---SELF-CONSISTENT-FIELD CONVERGENCE--------------------------------------------

     iter   Etot(hartree)      deltaE(h)  residm     vres2    diffor    maxfor
 ETOT  1  -1.1058312013257    -1.106E+00 1.005E-10 1.884E-02 1.273E-02 1.627E-04
 ETOT  2  -1.1058359487269    -4.747E-06 1.103E-12 5.003E-04 1.148E-04 2.775E-04
 ETOT  3  -1.1058360527207    -1.040E-07 8.899E-10 8.926E-05 1.227E-04 1.548E-04
 ETOT  4  -1.1058360642148    -1.149E-08 6.205E-11 1.997E-06 2.954E-05 1.843E-04
 ETOT  5  -1.1058360643513    -1.365E-10 1.158E-13 3.325E-08 1.606E-06 1.827E-04

 At SCF step    5, forces are converged : 
  for the second time, max diff in force=  1.606E-06 < toldff=  5.000E-05

 Cartesian components of stress tensor (hartree/bohr^3)
  sigma(1 1)=  4.24046801E-05  sigma(3 2)=  0.00000000E+00
  sigma(2 2)=  3.45803039E-05  sigma(3 1)=  0.00000000E+00
  sigma(3 3)=  3.45803039E-05  sigma(2 1)=  0.00000000E+00

 Integrated electronic density in atomic spheres:
 ------------------------------------------------
 Atom  Sphere_radius  Integrated_density
    1        2.00000          1.38806495
    2        2.00000          1.38806495

---OUTPUT-----------------------------------------------------------------------

 Cartesian coordinates (xcart) [bohr]
 -7.60910157594300E-01  0.00000000000000E+00  0.00000000000000E+00
  7.60910157594300E-01  0.00000000000000E+00  0.00000000000000E+00
 Reduced coordinates (xred)
 -7.60910157594300E-02  0.00000000000000E+00  0.00000000000000E+00
  7.60910157594300E-02  0.00000000000000E+00  0.00000000000000E+00
 Cartesian forces (fcart) [Ha/bohr]; max,rms= 1.82705E-04 1.05485E-04 (free atoms)
  1.82705336844240E-04 -0.00000000000000E+00 -0.00000000000000E+00
 -1.82705336844240E-04 -0.00000000000000E+00 -0.00000000000000E+00
 Reduced forces (fred)
 -1.82705336844240E-03  0.00000000000000E+00  0.00000000000000E+00
  1.82705336844240E-03  0.00000000000000E+00  0.00000000000000E+00
 Total energy (etotal) [Ha]= -1.10583606435129E+00

 Difference of energy with previous step (new-old):
           Absolute (Ha)=-2.83507E-04
           Relative     =-2.56407E-04

 At Broyd/MD step   3, gradients are converged : 
  max grad (force/stress) = 1.8271E-04 < tolmxf= 5.0000E-04 ha/bohr (free atoms)

================================================================================

 ----iterations are completed or convergence reached----

 Mean square residual over all n,k,spin=   1.1578E-13; max=  1.1578E-13
 reduced coordinates (array xred) for    2 atoms
      -0.076091015759      0.000000000000      0.000000000000
       0.076091015759      0.000000000000      0.000000000000
 rms dE/dt=  1.0548E-03; max dE/dt=  1.8271E-03; dE/dt below (all hartree)
    1      -0.001827053368      0.000000000000      0.000000000000
    2       0.001827053368      0.000000000000      0.000000000000

 cartesian coordinates (angstrom) at end:
    1     -0.40265631318353     0.00000000000000     0.00000000000000
    2      0.40265631318353     0.00000000000000     0.00000000000000

 cartesian forces (hartree/bohr) at end:
    1      0.00018270533684    -0.00000000000000    -0.00000000000000
    2     -0.00018270533684    -0.00000000000000    -0.00000000000000
 frms,max,avg= 1.0548498E-04 1.8270534E-04   0.000E+00  0.000E+00  0.000E+00 h/b

 cartesian forces (eV/Angstrom) at end:
    1      0.00939508537676    -0.00000000000000    -0.00000000000000
    2     -0.00939508537676    -0.00000000000000    -0.00000000000000
 frms,max,avg= 5.4242551E-03 9.3950854E-03   0.000E+00  0.000E+00  0.000E+00 e/A
 length scales= 10.000000000000 10.000000000000 10.000000000000 bohr
              =  5.291772085900  5.291772085900  5.291772085900 angstroms
 prteigrs : about to open file H2_o_DS1_EIG
 Fermi (or HOMO) energy (hartree) =  -0.35518   Average Vxc (hartree)=  -0.07655
 Eigenvalues (hartree) for nkpt=   1  k points:
 kpt#   1, nband=  1, wtk=  1.00000, kpt=  0.0000  0.0000  0.0000 (reduced coord)
  -0.35518

--------------------------------------------------------------------------------
 Components of total free energy (in Hartree) :

    Kinetic energy  =  9.49867400597697E-01
    Hartree energy  =  6.78517455887324E-01
    XC energy       = -6.16492591101483E-01
    Ewald energy    =  9.46663102134122E-02
    PspCore energy  = -1.92143215271889E-05
    Loc. psp. energy= -2.21237542562671E+00
    NL   psp  energy=  0.00000000000000E+00
    >>>>>>>>> Etotal= -1.10583606435129E+00

 Other information on the energy :
    Total energy(eV)= -3.00913296332946E+01 ; Band energy (Ha)=  -7.1035374789E-01
--------------------------------------------------------------------------------
 rms coord change=  3.5166E-03   atom, delta coord (reduced):
     1       -0.006091015759      0.000000000000      0.000000000000
     2        0.006091015759      0.000000000000      0.000000000000

 Cartesian components of stress tensor (hartree/bohr^3)
  sigma(1 1)=  4.24046801E-05  sigma(3 2)=  0.00000000E+00
  sigma(2 2)=  3.45803039E-05  sigma(3 1)=  0.00000000E+00
  sigma(3 3)=  3.45803039E-05  sigma(2 1)=  0.00000000E+00

-Cartesian components of stress tensor (GPa)         [Pressure= -1.0941E+00 GPa]
- sigma(1 1)=  1.24758855E+00  sigma(3 2)=  0.00000000E+00
- sigma(2 2)=  1.01738749E+00  sigma(3 1)=  0.00000000E+00
- sigma(3 3)=  1.01738749E+00  sigma(2 1)=  0.00000000E+00

================================================================================
== DATASET  2 ==================================================================
-   nproc =    1

 Exchange-correlation functional for the present dataset will be:
  LDA: new Teter (4/93) with spin-polarized option - ixc=1
 Citation for XC functional:
  S. Goedecker, M. Teter, J. Huetter, PRB 54, 1703 (1996)

 Real(R)+Recip(G) space primitive vectors, cartesian coordinates (Bohr,Bohr^-1):
 R(1)= 10.0000000  0.0000000  0.0000000  G(1)=  0.1000000  0.0000000  0.0000000
 R(2)=  0.0000000 10.0000000  0.0000000  G(2)=  0.0000000  0.1000000  0.0000000
 R(3)=  0.0000000  0.0000000 10.0000000  G(3)=  0.0000000  0.0000000  0.1000000
 Unit cell volume ucvol=  1.0000000E+03 bohr^3
 Angles (23,13,12)=  9.00000000E+01  9.00000000E+01  9.00000000E+01 degrees

 getcut: wavevector=  0.0000  0.0000  0.0000  ngfft=  30  30  30
         ecut(hartree)=     10.000   => boxcut(ratio)=   2.10744
  -4.80358038E-03                                ecore*ucvol(ha*bohr**3)
--------------------------------------------------------------------------------

_setup2: Arith. and geom. avg. npw (full set) are    1503.000    1503.000

================================================================================

     iter   Etot(hartree)      deltaE(h)  residm     vres2    diffor    maxfor
 ETOT  1 -0.46980757227245    -4.698E-01 5.815E-06 6.237E+00 0.000E+00 0.000E+00
 ETOT  2 -0.47008829985620    -2.807E-04 2.519E-11 4.994E-01 0.000E+00 0.000E+00
 ETOT  3 -0.47010514260039    -1.684E-05 1.440E-07 1.388E-02 0.000E+00 0.000E+00
 ETOT  4 -0.47010529456329    -1.520E-07 2.587E-09 4.788E-04 0.000E+00 0.000E+00
 ETOT  5 -0.47010531489229    -2.033E-08 1.467E-11 1.064E-05 0.000E+00 0.000E+00

 At SCF step    5, etot is converged : 
  for the second time, diff in etot=  2.033E-08 < toldfe=  1.000E-06

 Cartesian components of stress tensor (hartree/bohr^3)
  sigma(1 1)=  1.80449486E-05  sigma(3 2)=  0.00000000E+00
  sigma(2 2)=  1.80449486E-05  sigma(3 1)=  0.00000000E+00
  sigma(3 3)=  1.80449486E-05  sigma(2 1)=  0.00000000E+00

 Integrated electronic and magnetization densities in atomic spheres:
 ---------------------------------------------------------------------
 Note: Diff(up-dn) is a rough approximation of local magnetic moment
 Atom    Radius    up_density   dn_density  Total(up+dn)  Diff(up-dn)
    1   2.00000     0.700509     0.000000      0.700509     0.700509
 ---------------------------------------------------------------------
  Sum:              0.700509     0.000000      0.700509     0.700509
 Total magnetization (from the atomic spheres):             0.700509
 Total magnetization (exact up - dn):                       1.000000
================================================================================

 ----iterations are completed or convergence reached----

 Mean square residual over all n,k,spin=   1.4158E-11; max=  1.4666E-11
 reduced coordinates (array xred) for    1 atoms
       0.000000000000      0.000000000000      0.000000000000
 rms dE/dt=  0.0000E+00; max dE/dt=  0.0000E+00; dE/dt below (all hartree)
    1       0.000000000000      0.000000000000      0.000000000000

 cartesian coordinates (angstrom) at end:
    1      0.00000000000000     0.00000000000000     0.00000000000000

 cartesian forces (hartree/bohr) at end:
    1     -0.00000000000000    -0.00000000000000    -0.00000000000000
 frms,max,avg= 0.0000000E+00 0.0000000E+00   0.000E+00  0.000E+00  0.000E+00 h/b

 cartesian forces (eV/Angstrom) at end:
    1     -0.00000000000000    -0.00000000000000    -0.00000000000000
 frms,max,avg= 0.0000000E+00 0.0000000E+00   0.000E+00  0.000E+00  0.000E+00 e/A
 length scales= 10.000000000000 10.000000000000 10.000000000000 bohr
              =  5.291772085900  5.291772085900  5.291772085900 angstroms
 prteigrs : about to open file H2_o_DS2_EIG
 Fermi (or HOMO) energy (hartree) =  -0.26414   Average Vxc (hartree)=  -0.06898
 Eigenvalues (hartree) for nkpt=   1  k points, SPIN UP:
 kpt#   1, nband=  1, wtk=  1.00000, kpt=  0.0000  0.0000  0.0000 (reduced coord)
  -0.26414
 Eigenvalues (hartree) for nkpt=   1  k points, SPIN DOWN:
 kpt#   1, nband=  1, wtk=  1.00000, kpt=  0.0000  0.0000  0.0000 (reduced coord)
  -0.11112

--------------------------------------------------------------------------------
 Components of total free energy (in Hartree) :

    Kinetic energy  =  4.06701917103136E-01
    Hartree energy  =  1.47948764931794E-01
    XC energy       = -2.63312420910805E-01
    Ewald energy    = -1.41864873974033E-01
    PspCore energy  = -4.80358038179723E-06
    Loc. psp. energy= -6.19573898462001E-01
    NL   psp  energy=  0.00000000000000E+00
    >>>>>>>>> Etotal= -4.70105314892290E-01

 Other information on the energy :
    Total energy(eV)= -1.27922161781603E+01 ; Band energy (Ha)=  -2.6414461722E-01
--------------------------------------------------------------------------------

 Cartesian components of stress tensor (hartree/bohr^3)
  sigma(1 1)=  1.80449486E-05  sigma(3 2)=  0.00000000E+00
  sigma(2 2)=  1.80449486E-05  sigma(3 1)=  0.00000000E+00
  sigma(3 3)=  1.80449486E-05  sigma(2 1)=  0.00000000E+00

-Cartesian components of stress tensor (GPa)         [Pressure= -5.3090E-01 GPa]
- sigma(1 1)=  5.30900628E-01  sigma(3 2)=  0.00000000E+00
- sigma(2 2)=  5.30900628E-01  sigma(3 1)=  0.00000000E+00
- sigma(3 3)=  5.30900628E-01  sigma(2 1)=  0.00000000E+00

== END DATASET(S) ==============================================================
================================================================================
  
 -outvars: echo values of variables after computation  --------
            acell      1.0000000000E+01  1.0000000000E+01  1.0000000000E+01 Bohr
              amu      1.00794000E+00
        bs_loband1          0
        bs_loband2          0       0
           diemac      2.00000000E+00
             ecut      1.00000000E+01 Hartree
           etotal1    -1.1058360644E+00
           etotal2    -4.7010531489E-01
            fcart1     1.8270533684E-04 -0.0000000000E+00 -0.0000000000E+00
                      -1.8270533684E-04 -0.0000000000E+00 -0.0000000000E+00
            fcart2    -0.0000000000E+00 -0.0000000000E+00 -0.0000000000E+00
-          fftalg         112
           ionmov1          3
           ionmov2          0
           istwfk        2
           jdtset        1    2
           kptopt           0
P           mkmem           1
            natom1          2
            natom2          1
            nband1          1
            nband2          1       1
           ndtset           2
            ngfft          30      30      30
             nkpt           1
           nspden1          1
           nspden2          2
           nsppol1          1
           nsppol2          2
            nstep          10
             nsym1         16
             nsym2         48
            ntime1         10
            ntime2          1
           ntypat           1
              occ1     2.000000
              occ2     1.000000
                       0.000000
           occopt1          1
           occopt2          2
        optforces           1
          spgroup1        123
          spgroup2        221
           spinat2     0.0000000000E+00  0.0000000000E+00  1.0000000000E+00
           strten1     4.2404680139E-05  3.4580303859E-05  3.4580303859E-05
                       0.0000000000E+00  0.0000000000E+00  0.0000000000E+00
           strten2     1.8044948612E-05  1.8044948612E-05  1.8044948612E-05
                       0.0000000000E+00  0.0000000000E+00  0.0000000000E+00
           symafm1       1    1    1    1    1    1    1    1    1    1
                         1    1    1    1    1    1
           symafm2       1    1    1    1    1    1    1    1    1    1
                         1    1    1    1    1    1    1    1    1    1
                         1    1    1    1    1    1    1    1    1    1
                         1    1    1    1    1    1    1    1    1    1
                         1    1    1    1    1    1    1    1
           symrel1     1  0  0   0  1  0   0  0  1      -1  0  0   0 -1  0   0  0 -1
                      -1  0  0   0  1  0   0  0 -1       1  0  0   0 -1  0   0  0  1
                      -1  0  0   0 -1  0   0  0  1       1  0  0   0  1  0   0  0 -1
                       1  0  0   0 -1  0   0  0 -1      -1  0  0   0  1  0   0  0  1
                       1  0  0   0  0  1   0  1  0      -1  0  0   0  0 -1   0 -1  0
                      -1  0  0   0  0  1   0 -1  0       1  0  0   0  0 -1   0  1  0
                      -1  0  0   0  0 -1   0  1  0       1  0  0   0  0  1   0 -1  0
                       1  0  0   0  0 -1   0 -1  0      -1  0  0   0  0  1   0  1  0
           symrel2     1  0  0   0  1  0   0  0  1      -1  0  0   0 -1  0   0  0 -1
                      -1  0  0   0  1  0   0  0 -1       1  0  0   0 -1  0   0  0  1
                      -1  0  0   0 -1  0   0  0  1       1  0  0   0  1  0   0  0 -1
                       1  0  0   0 -1  0   0  0 -1      -1  0  0   0  1  0   0  0  1
                       0  1  0   1  0  0   0  0  1       0 -1  0  -1  0  0   0  0 -1
                       0 -1  0   1  0  0   0  0 -1       0  1  0  -1  0  0   0  0  1
                       0 -1  0  -1  0  0   0  0  1       0  1  0   1  0  0   0  0 -1
                       0  1  0  -1  0  0   0  0 -1       0 -1  0   1  0  0   0  0  1
                       0  0  1   1  0  0   0  1  0       0  0 -1  -1  0  0   0 -1  0
                       0  0 -1   1  0  0   0 -1  0       0  0  1  -1  0  0   0  1  0
                       0  0 -1  -1  0  0   0  1  0       0  0  1   1  0  0   0 -1  0
                       0  0  1  -1  0  0   0 -1  0       0  0 -1   1  0  0   0  1  0
                       1  0  0   0  0  1   0  1  0      -1  0  0   0  0 -1   0 -1  0
                      -1  0  0   0  0  1   0 -1  0       1  0  0   0  0 -1   0  1  0
                      -1  0  0   0  0 -1   0  1  0       1  0  0   0  0  1   0 -1  0
                       1  0  0   0  0 -1   0 -1  0      -1  0  0   0  0  1   0  1  0
                       0  1  0   0  0  1   1  0  0       0 -1  0   0  0 -1  -1  0  0
                       0 -1  0   0  0  1  -1  0  0       0  1  0   0  0 -1   1  0  0
                       0 -1  0   0  0 -1   1  0  0       0  1  0   0  0  1  -1  0  0
                       0  1  0   0  0 -1  -1  0  0       0 -1  0   0  0  1   1  0  0
                       0  0  1   0  1  0   1  0  0       0  0 -1   0 -1  0  -1  0  0
                       0  0 -1   0  1  0  -1  0  0       0  0  1   0 -1  0   1  0  0
                       0  0 -1   0 -1  0   1  0  0       0  0  1   0  1  0  -1  0  0
                       0  0  1   0 -1  0  -1  0  0       0  0 -1   0  1  0   1  0  0
            tnons1     0.0000000  0.0000000  0.0000000     0.0000000  0.0000000  0.0000000
                       0.0000000  0.0000000  0.0000000     0.0000000  0.0000000  0.0000000
                       0.0000000  0.0000000  0.0000000     0.0000000  0.0000000  0.0000000
                       0.0000000  0.0000000  0.0000000     0.0000000  0.0000000  0.0000000
                       0.0000000  0.0000000  0.0000000     0.0000000  0.0000000  0.0000000
                       0.0000000  0.0000000  0.0000000     0.0000000  0.0000000  0.0000000
                       0.0000000  0.0000000  0.0000000     0.0000000  0.0000000  0.0000000
                       0.0000000  0.0000000  0.0000000     0.0000000  0.0000000  0.0000000
            tnons2     0.0000000  0.0000000  0.0000000     0.0000000  0.0000000  0.0000000
                       0.0000000  0.0000000  0.0000000     0.0000000  0.0000000  0.0000000
                       0.0000000  0.0000000  0.0000000     0.0000000  0.0000000  0.0000000
                       0.0000000  0.0000000  0.0000000     0.0000000  0.0000000  0.0000000
                       0.0000000  0.0000000  0.0000000     0.0000000  0.0000000  0.0000000
                       0.0000000  0.0000000  0.0000000     0.0000000  0.0000000  0.0000000
                       0.0000000  0.0000000  0.0000000     0.0000000  0.0000000  0.0000000
                       0.0000000  0.0000000  0.0000000     0.0000000  0.0000000  0.0000000
                       0.0000000  0.0000000  0.0000000     0.0000000  0.0000000  0.0000000
                       0.0000000  0.0000000  0.0000000     0.0000000  0.0000000  0.0000000
                       0.0000000  0.0000000  0.0000000     0.0000000  0.0000000  0.0000000
                       0.0000000  0.0000000  0.0000000     0.0000000  0.0000000  0.0000000
                       0.0000000  0.0000000  0.0000000     0.0000000  0.0000000  0.0000000
                       0.0000000  0.0000000  0.0000000     0.0000000  0.0000000  0.0000000
                       0.0000000  0.0000000  0.0000000     0.0000000  0.0000000  0.0000000
                       0.0000000  0.0000000  0.0000000     0.0000000  0.0000000  0.0000000
                       0.0000000  0.0000000  0.0000000     0.0000000  0.0000000  0.0000000
                       0.0000000  0.0000000  0.0000000     0.0000000  0.0000000  0.0000000
                       0.0000000  0.0000000  0.0000000     0.0000000  0.0000000  0.0000000
                       0.0000000  0.0000000  0.0000000     0.0000000  0.0000000  0.0000000
                       0.0000000  0.0000000  0.0000000     0.0000000  0.0000000  0.0000000
                       0.0000000  0.0000000  0.0000000     0.0000000  0.0000000  0.0000000
                       0.0000000  0.0000000  0.0000000     0.0000000  0.0000000  0.0000000
                       0.0000000  0.0000000  0.0000000     0.0000000  0.0000000  0.0000000
           toldfe1     0.00000000E+00 Hartree
           toldfe2     1.00000000E-06 Hartree
           toldff1     5.00000000E-05
           toldff2     0.00000000E+00
           tolmxf1     5.00000000E-04
           tolmxf2     5.00000000E-05
            typat1     1  1
            typat2     1
           xangst1    -4.0265631318E-01  0.0000000000E+00  0.0000000000E+00
                       4.0265631318E-01  0.0000000000E+00  0.0000000000E+00
           xangst2     0.0000000000E+00  0.0000000000E+00  0.0000000000E+00
            xcart1    -7.6091015759E-01  0.0000000000E+00  0.0000000000E+00
                       7.6091015759E-01  0.0000000000E+00  0.0000000000E+00
            xcart2     0.0000000000E+00  0.0000000000E+00  0.0000000000E+00
             xred1    -7.6091015759E-02  0.0000000000E+00  0.0000000000E+00
                       7.6091015759E-02  0.0000000000E+00  0.0000000000E+00
             xred2     0.0000000000E+00  0.0000000000E+00  0.0000000000E+00
            znucl        1.00000

================================================================================

- Total cpu        time (s,m,h):          0.8        0.01      0.000
- Total wall clock time (s,m,h):          0.8        0.01      0.000
-
- For major independent code sections, cpu and wall times (sec),
-  as well as % of the time and number of calls for node 0-
-<BEGIN_TIMER mpi_nprocs = 1, omp_nthreads = 1, mpi_rank = 0>
- cpu_time =            0.8, wall_time =            0.8
-
- routine                        cpu     %       wall     %      number of calls  Gflops 
-                                                                  (-1=no count)
- invars2                        0.156  19.3      0.160  19.4              2      -1.00    
- timing timab                   0.152  18.8      0.155  18.8             11      -1.00    
- fourwf%(pot)                   0.072   8.9      0.062   7.5            175      -1.00    
- xc:pot/=fourdp                 0.068   8.4      0.077   9.3             27      -1.00    
- abinit(2)                      0.056   6.9      0.054   6.5              1      -1.00    
- symrhg(no FFT)                 0.036   4.5      0.029   3.5             33      -1.00    
- forces                         0.036   4.5      0.032   3.9             23      -1.00    
- fourdp                         0.032   4.0      0.043   5.2            138      -1.00    
- stress                         0.024   3.0      0.016   1.9              4      -1.00    
- ewald                          0.008   1.0      0.011   1.3              4      -1.00    
- setsym                         0.008   1.0      0.005   0.6              2      -1.00    
- ewald2 (+vdw_dftd)             0.008   1.0      0.007   0.8              4      -1.00    
- projbd                         0.004   0.5      0.008   1.0            274      -1.00    
- vtowfk(ssdiag)                 0.004   0.5      0.007   0.8             -1      -1.00    
- fourwf%(den)                   0.000   0.0      0.005   0.6             23      -1.00    
- others (97)                    0.008   1.0      0.009   1.1             -1      -1.00    
-<END_TIMER>
-
- subtotal                       0.672  83.2      0.680  82.4

- For major independent code sections, cpu and wall times (sec),
- as well as % of the total time and number of calls 

-<BEGIN_TIMER mpi_nprocs = 1, omp_nthreads = 1, mpi_rank = world>
- cpu_time =           0.8, wall_time =           0.8
-
- routine                         cpu     %       wall     %      number of calls Gflops 
-                                                                  (-1=no count)
- invars2                        0.156  19.3      0.160  19.4              2      -1.00    
- timing timab                   0.152  18.8      0.155  18.8             11      -1.00    
- fourwf%(pot)                   0.072   8.9      0.062   7.5            175      -1.00    
- xc:pot/=fourdp                 0.068   8.4      0.077   9.3             27      -1.00    
- abinit(2)                      0.056   6.9      0.054   6.5              1      -1.00    
- symrhg(no FFT)                 0.036   4.5      0.029   3.5             33      -1.00    
- forces                         0.036   4.5      0.032   3.9             23      -1.00    
- fourdp                         0.032   4.0      0.043   5.2            138      -1.00    
- stress                         0.024   3.0      0.016   1.9              4      -1.00    
- ewald                          0.008   1.0      0.011   1.3              4      -1.00    
- setsym                         0.008   1.0      0.005   0.6              2      -1.00    
- ewald2 (+vdw_dftd)             0.008   1.0      0.007   0.8              4      -1.00    
- projbd                         0.004   0.5      0.008   1.0            274      -1.00    
- vtowfk(ssdiag)                 0.004   0.5      0.007   0.8             -1      -1.00    
- fourwf%(den)                   0.000   0.0      0.005   0.6             23      -1.00    
- others (97)                    0.008   1.0      0.009   1.1             -1      -1.00    
-<END_TIMER>

- subtotal                       0.672  83.2      0.680  82.4

================================================================================

 Suggested references for the acknowledgment of ABINIT usage.

 The users of ABINIT have little formal obligations with respect to the ABINIT group
 (those specified in the GNU General Public License, http://www.gnu.org/copyleft/gpl.txt).
 However, it is common practice in the scientific literature,
 to acknowledge the efforts of people that have made the research possible.
 In this spirit, please find below suggested citations of work written by ABINIT developers,
 corresponding to implementations inside of ABINIT that you have used in the present run.
 Note also that it will be of great value to readers of publications presenting these results,
 to read papers enabling them to understand the theoretical formalism and details
 of the ABINIT implementation.
 For information on why they are suggested, see also http://www.abinit.org/about/?text=acknowledgments.
-
- [1] Recent developments in the ABINIT software package.
- Computer Phys. Comm. 205, 106 (2016).
- X.Gonze, F.Jollet, F.Abreu Araujo, D.Adams, B.Amadon, T.Applencourt,
- C.Audouze, J.-M.Beuken, J.Bieder, A.Bokhanchuk, E.Bousquet, F.Bruneval
- D.Caliste, M.Cote, F.Dahm, F.Da Pieve, M.Delaveau, M.Di Gennaro,
- B.Dorado, C.Espejo, G.Geneste, L.Genovese, A.Gerossier, M.Giantomassi,
- Y.Gillet, D.R.Hamann, L.He, G.Jomard, J.Laflamme Janssen, S.Le Roux,
- A.Levitt, A.Lherbier, F.Liu, I.Lukacevic, A.Martin, C.Martins,
- M.J.T.Oliveira, S.Ponce, Y.Pouillon, T.Rangel, G.-M.Rignanese,
- A.H.Romero, B.Rousseau, O.Rubel, A.A.Shukri, M.Stankovski, M.Torrent,
- M.J.Van Setten, B.Van Troeye, M.J.Verstraete, D.Waroquier, J.Wiktor,
- B.Xue, A.Zhou, J.W.Zwanziger.
- Comment : the fourth generic paper describing the ABINIT project.
- Note that a version of this paper, that is not formatted for Computer Phys. Comm. 
- is available at http://www.abinit.org/about/ABINIT16.pdf .
- The licence allows the authors to put it on the Web.
-
- [2] ABINIT : First-principles approach of materials and nanosystem properties.
- Computer Phys. Comm. 180, 2582-2615 (2009).
- X. Gonze, B. Amadon, P.-M. Anglade, J.-M. Beuken, F. Bottin, P. Boulanger, F. Bruneval,
- D. Caliste, R. Caracas, M. Cote, T. Deutsch, L. Genovese, Ph. Ghosez, M. Giantomassi
- S. Goedecker, D.R. Hamann, P. Hermet, F. Jollet, G. Jomard, S. Leroux, M. Mancini, S. Mazevet,
- M.J.T. Oliveira, G. Onida, Y. Pouillon, T. Rangel, G.-M. Rignanese, D. Sangalli, R. Shaltaf,
- M. Torrent, M.J. Verstraete, G. Zerah, J.W. Zwanziger
- Comment : the third generic paper describing the ABINIT project.
- Note that a version of this paper, that is not formatted for Computer Phys. Comm. 
- is available at http://www.abinit.org/about/ABINIT_CPC_v10.pdf .
- The licence allows the authors to put it on the Web.
-
- [3] A brief introduction to the ABINIT software package.
- Z. Kristallogr. 220, 558-562 (2005).
- X. Gonze, G.-M. Rignanese, M. Verstraete, J.-M. Beuken, Y. Pouillon, R. Caracas, F. Jollet,
- M. Torrent, G. Zerah, M. Mikami, Ph. Ghosez, M. Veithen, J.-Y. Raty, V. Olevano, F. Bruneval,
- L. Reining, R. Godby, G. Onida, D.R. Hamann, and D.C. Allan.
- Comment : the second generic paper describing the ABINIT project. Note that this paper
- should be cited especially if you are using the GW part of ABINIT, as several authors
- of this part are not in the list of authors of the first or third paper.
- The .pdf of the latter paper is available at http://www.abinit.org/about/zfk_0505-06_558-562.pdf.
- Note that it should not redistributed (Copyright by Oldenburg Wissenshaftverlag,
- the licence allows the authors to put it on the Web).
-
- And optionally:
-
- [4] First-principles computation of material properties : the ABINIT software project. 
- X. Gonze, J.-M. Beuken, R. Caracas, F. Detraux, M. Fuchs, G.-M. Rignanese, L. Sindic,
- M. Verstraete, G. Zerah, F. Jollet, M. Torrent, A. Roy, M. Mikami, Ph. Ghosez, J.-Y. Raty, D.C. Allan.
- Computational Materials Science 25, 478-492 (2002). http://dx.doi.org/10.1016/S0927-0256(02)00325-7
- Comment : the original paper describing the ABINIT project.
-
- Proc.   0 individual time (sec): cpu=          0.8  wall=          0.8

================================================================================

 Calculation completed.
.Delivered   7 WARNINGs and   6 COMMENTs to log file.
+Overall time at end (sec) : cpu=          0.8  wall=          0.8
