  ABINIT 8.0.8
  
  Give name for formatted input file: 
./H2.in
  Give name for formatted output file:
H2.out
  Give root name for generic input files:
H2_i
  Give root name for generic output files:
H2_o
  Give root name for generic temporary files:
H2

.Version 8.0.8 of ABINIT 
.(sequential version, prepared for a x86_64_linux_gnu4.9 computer) 

.Copyright (C) 1998-2016 ABINIT group . 
 ABINIT comes with ABSOLUTELY NO WARRANTY.
 It is free software, and you are welcome to redistribute it
 under certain conditions (GNU General Public License,
 see ~abinit/COPYING or http://www.gnu.org/copyleft/gpl.txt).

 ABINIT is a project of the Universite Catholique de Louvain,
 Corning Inc. and other collaborators, see ~abinit/doc/developers/contributors.txt .
 Please read ~abinit/doc/users/acknowledgments.html for suggested
 acknowledgments of the ABINIT effort.
 For more information, see http://www.abinit.org .

.Starting date : Wed 27 Jul 2016.
- ( at 09h50 )
  

 ++++++++++++++++++++++++++++++++++++++++++++++++++++++++++++++++++++++++++++++

 === Build Information === 
  Version       : 8.0.8
  Build target  : x86_64_linux_gnu4.9
  Build date    : 20160727

 === Compiler Suite === 
  C compiler       : gnu4.9
  C++ compiler     : gnu4.9
  Fortran compiler : gnu4.9
  CFLAGS           :  -g -O2 -mtune=native -march=native
  CXXFLAGS         :  -g -O2 -mtune=native -march=native
  FCFLAGS          :  -g -ffree-line-length-none
  FC_LDFLAGS       : 

 === Optimizations === 
  Debug level        : basic
  Optimization level : standard
  Architecture       : unknown_unknown

 === Multicore === 
  Parallel build : no
  Parallel I/O   : no
  openMP support : no
  GPU support    : no

 === Connectors / Fallbacks === 
  Connectors on : yes
  Fallbacks on  : yes
  DFT flavor    : none
  FFT flavor    : none
  LINALG flavor : netlib
  MATH flavor   : none
  TIMER flavor  : abinit
  TRIO flavor   : none

 === Experimental features === 
  Bindings            : @enable_bindings@
  Exports             : no
  GW double-precision : no

 ++++++++++++++++++++++++++++++++++++++++++++++++++++++++++++++++++++++++++++++


 ++++++++++++++++++++++++++++++++++++++++++++++++++++++++++++++++++++++++++++++
 Default optimizations:
   -O2 -mtune=native -march=native


 Optimizations for 20_datashare:
   -O0


 ++++++++++++++++++++++++++++++++++++++++++++++++++++++++++++++++++++++++++++++


 ++++++++++++++++++++++++++++++++++++++++++++++++++++++++++++++++++++++++++++++
 CPP options activated during the build:

                    CC_GNU                   CXX_GNU HAVE_FC_ALLOCATABLE_DT...
 
             HAVE_FC_ASYNC         HAVE_FC_BACKTRACE  HAVE_FC_COMMAND_ARGUMENT
 
      HAVE_FC_COMMAND_LINE        HAVE_FC_CONTIGUOUS           HAVE_FC_CPUTIME
 
              HAVE_FC_EXIT             HAVE_FC_FLUSH             HAVE_FC_GAMMA
 
            HAVE_FC_GETENV          HAVE_FC_INT_QUAD             HAVE_FC_IOMSG
 
     HAVE_FC_ISO_C_BINDING  HAVE_FC_ISO_FORTRAN_2008        HAVE_FC_LONG_LINES
 
        HAVE_FC_MOVE_ALLOC           HAVE_FC_PRIVATE         HAVE_FC_PROTECTED
 
         HAVE_FC_STREAM_IO            HAVE_FC_SYSTEM        HAVE_LIBPAW_ABINIT
 
      HAVE_LIBTETRA_ABINIT               HAVE_LINALG        HAVE_LINALG_SERIAL
 
                HAVE_NUMPY             HAVE_OS_LINUX                HAVE_TIMER
 
         HAVE_TIMER_ABINIT         HAVE_TIMER_SERIAL              USE_MACROAVE
 
 ++++++++++++++++++++++++++++++++++++++++++++++++++++++++++++++++++++++++++++++

- input  file    -> ./H2.in
- output file    -> H2.out
- root for input  files -> H2_i
- root for output files -> H2_o

-instrng: 89 lines of input have been read from file ./H2.in

  status : statnu, output_rate, shift_rate=           1           0           1
 level,routine=           3 init istatr   
 active(level)=           1
 counter,actual_counter(level,1:2)=           0           0           0
 List of active levels :
  Active level number=           3

 Please give name of formatted atomic psp file
 iofn2 : for atom type 1, psp file is ./01h.pspgth
  read the values zionpsp=  1.0 , pspcod=   2 , lmax=   0

 inpspheads: deduce mpsang = 1, n1xccc = 0.

 invars1m : enter jdtset= 1
 invars1 : treat image number: 1

 symlatt : the Bravais lattice is cP (primitive cubic)
  xcart  is defined in input file
 ingeo : takes atomic coordinates from input array xcart

 symlatt : the Bravais lattice is cP (primitive cubic)

 symlatt : the Bravais lattice is cP (primitive cubic)

--- !COMMENT
src_file: symbrav.F90
src_line: 201
message: |
    The Bravais lattice determined only from the primitive
    vectors, bravais(1)=  7, is more symmetric
    than the real one, iholohedry=  4, obtained by taking into
    account the atomic positions. Start deforming the primitive vector set.
...


 symlatt : the Bravais lattice is tP (primitive tetragonal)
 symspgr : spgroup= 123  P4/m m m   (=D4h^1)
 ingeo : angdeg(1:3)=   90.00000000   90.00000000   90.00000000
 inkpts: Sum of    1 k point weights is    1.000000

 invars1m : enter jdtset= 2
 invars1 : treat image number: 1

 symlatt : the Bravais lattice is cP (primitive cubic)
  xcart  is defined in input file
 ingeo : takes atomic coordinates from input array xcart

 symlatt : the Bravais lattice is cP (primitive cubic)

 symlatt : the Bravais lattice is cP (primitive cubic)
 symspgr : spgroup= 221  Pm -3 m   (=Oh^1)
 ingeo : angdeg(1:3)=   90.00000000   90.00000000   90.00000000
 inkpts: Sum of    1 k point weights is    1.000000
 inkpts: Sum of    1 k point weights is    1.000000
 
 invars2 : Printing the k point grid (values of kptns - max 100 of them)
 nkpt=       1
     ikpt istwfk    wtk       --------- reduced coordinates ---------  --------- cartesian coordinates ---------
       1     2  1.000000E+00  0.000000E+00  0.000000E+00  0.000000E+00  0.000000E+00  0.000000E+00  0.000000E+00
 

  chkneu : enter, dtset%nelect=   2.0000000000000000     
  occopt,dtset%nsppol,dtset%nspden=           1           1           1
  maxocc,nocc,occlast=   2.0000000000000000                1   2.0000000000000000     
 chkneu : initialized the occupation numbers for occopt=    1, spin-unpolarized or antiferromagnetic case :
  2.00
 inkpts: Sum of    1 k point weights is    1.000000
 
 invars2 : Printing the k point grid (values of kptns - max 100 of them)
 nkpt=       1
     ikpt istwfk    wtk       --------- reduced coordinates ---------  --------- cartesian coordinates ---------
       1     2  1.000000E+00  0.000000E+00  0.000000E+00  0.000000E+00  0.000000E+00  0.000000E+00  0.000000E+00
 invars2: reading occ(nband*nkpt*nsppol) explicitly
 

  chkneu : enter, dtset%nelect=   1.0000000000000000     
  occopt,dtset%nsppol,dtset%nspden=           2           2           2
mpi_setup: mkmem  undefined in the input file.Use default mkmem  = nkpt
 mpi_setup: With nkpt_me=1 and mkmem  = 1, ground state wf handled in core.
mpi_setup: mkqmem undefined in the input file.Use default mkqmem = nkpt
 mpi_setup: With nkpt_me=1 and mkqmem = 1, ground state wf handled in core.
mpi_setup: mk1mem undefined in the input file.Use default mk1mem = nkpt
 mpi_setup: With nkpt_me=1 and mk1mem = 1, ground state wf handled in core.
 For input ecut=  1.000000E+01 best grid ngfft=      30      30      30
       max ecut=  1.110330E+01

 ==== FFT mesh ====
  FFT mesh divisions ........................    30   30   30
  Augmented FFT divisions ...................    31   31   30
  FFT algorithm .............................   112
  FFT cache size ............................    16
 getmpw: optimal value of mpw= 752
mpi_setup: mkmem  undefined in the input file.Use default mkmem  = nkpt
 mpi_setup: With nkpt_me=1 and mkmem  = 1, ground state wf handled in core.
mpi_setup: mkqmem undefined in the input file.Use default mkqmem = nkpt
 mpi_setup: With nkpt_me=1 and mkqmem = 1, ground state wf handled in core.
mpi_setup: mk1mem undefined in the input file.Use default mk1mem = nkpt
 mpi_setup: With nkpt_me=1 and mk1mem = 1, ground state wf handled in core.
 For input ecut=  1.000000E+01 best grid ngfft=      30      30      30
       max ecut=  1.110330E+01

 ==== FFT mesh ====
  FFT mesh divisions ........................    30   30   30
  Augmented FFT divisions ...................    31   31   30
  FFT algorithm .............................   112
  FFT cache size ............................    16
 getmpw: optimal value of mpw= 752

 DATASET    1 : space group P4/m m m (#123); Bravais tP (primitive tetrag.)

--- !COMMENT
src_file: getdim_nloc.F90
src_line: 153
message: |
    Despite there is only a local part to pseudopotential(s),
    lmnmax and lnmax are set to 1.
...


 getdim_nloc : deduce lmnmax  =   1, lnmax  =   1,
                      lmnmaxso=   1, lnmaxso=   1.
memory : analysis of memory needs
================================================================================
 Values of the parameters that define the memory need for DATASET  1.
     intxc =       0    ionmov =       3      iscf =       7    lmnmax =       1
     lnmax =       1     mgfft =      30  mpssoang =       1    mqgrid =    3001
     natom =       2  nloc_mem =       1    nspden =       1   nspinor =       1
    nsppol =       1      nsym =      16    n1xccc =       0    ntypat =       1
    occopt =       1   xclevel =       1
-    mband =           1        mffmem =           1         mkmem =           1
       mpw =         752          nfft =       27000          nkpt =           1
================================================================================
P This job should need less than                       7.888 Mbytes of memory.
  Rough estimation (10% accuracy) of disk space for files :
_ WF disk file :      0.013 Mbytes ; DEN or POT disk file :      0.208 Mbytes.
================================================================================

 Biggest array : f_fftgr(disk), with      3.2979 MBytes.
 memana : allocated an array of      3.298 Mbytes, for testing purposes.
 memana: allocated       7.888Mbytes, for testing purposes. 
 The job will continue.

 DATASET    2 : space group Pm -3 m (#221); Bravais cP (primitive cubic)

--- !COMMENT
src_file: getdim_nloc.F90
src_line: 153
message: |
    Despite there is only a local part to pseudopotential(s),
    lmnmax and lnmax are set to 1.
...


 getdim_nloc : deduce lmnmax  =   1, lnmax  =   1,
                      lmnmaxso=   1, lnmaxso=   1.
memory : analysis of memory needs
================================================================================
 Values of the parameters that define the memory need for DATASET  2.
     intxc =       0    ionmov =       0      iscf =       7    lmnmax =       1
     lnmax =       1     mgfft =      30  mpssoang =       1    mqgrid =    3001
     natom =       1  nloc_mem =       1    nspden =       2   nspinor =       1
    nsppol =       2      nsym =      48    n1xccc =       0    ntypat =       1
    occopt =       2   xclevel =       1
-    mband =           1        mffmem =           1         mkmem =           1
       mpw =         752          nfft =       27000          nkpt =           1
================================================================================
P This job should need less than                      12.011 Mbytes of memory.
  Rough estimation (10% accuracy) of disk space for files :
_ WF disk file :      0.025 Mbytes ; DEN or POT disk file :      0.414 Mbytes.
================================================================================

 Biggest array : f_fftgr(disk), with      6.5938 MBytes.
 memana : allocated an array of      6.594 Mbytes, for testing purposes.
 memana: allocated      12.011Mbytes, for testing purposes. 
 The job will continue.
--------------------------------------------------------------------------------
------------- Echo of variables that govern the present computation ------------
--------------------------------------------------------------------------------
-
- outvars: echo of selected default values                                      
-   iomode0 =  0 , fftalg0 =112 , wfoptalg0 =  0
-
- outvars: echo of global parameters not present in the input file              
-  max_nthreads =    0
-
 -outvars: echo values of preprocessed input variables --------
            acell      1.0000000000E+01  1.0000000000E+01  1.0000000000E+01 Bohr
              amu      1.00794000E+00
        bs_loband1          0
        bs_loband2          0       0
           diemac      2.00000000E+00
             ecut      1.00000000E+01 Hartree
-          fftalg         112
           ionmov1          3
           ionmov2          0
           istwfk        2
           jdtset        1    2
           kptopt           0
P           mkmem           1
            natom1          2
            natom2          1
            nband1          1
            nband2          1       1
           ndtset           2
            ngfft          30      30      30
             nkpt           1
           nspden1          1
           nspden2          2
           nsppol1          1
           nsppol2          2
            nstep          10
             nsym1         16
             nsym2         48
            ntime1         10
            ntime2          1
           ntypat           1
              occ1     2.000000
              occ2     1.000000
                       0.000000
           occopt1          1
           occopt2          2
        optforces           1
          spgroup1        123
          spgroup2        221
           spinat2     0.0000000000E+00  0.0000000000E+00  1.0000000000E+00
           symafm1       1    1    1    1    1    1    1    1    1    1
                         1    1    1    1    1    1
           symafm2       1    1    1    1    1    1    1    1    1    1
                         1    1    1    1    1    1    1    1    1    1
                         1    1    1    1    1    1    1    1    1    1
                         1    1    1    1    1    1    1    1    1    1
                         1    1    1    1    1    1    1    1
           symrel1     1  0  0   0  1  0   0  0  1      -1  0  0   0 -1  0   0  0 -1
                      -1  0  0   0  1  0   0  0 -1       1  0  0   0 -1  0   0  0  1
                      -1  0  0   0 -1  0   0  0  1       1  0  0   0  1  0   0  0 -1
                       1  0  0   0 -1  0   0  0 -1      -1  0  0   0  1  0   0  0  1
                       1  0  0   0  0  1   0  1  0      -1  0  0   0  0 -1   0 -1  0
                      -1  0  0   0  0  1   0 -1  0       1  0  0   0  0 -1   0  1  0
                      -1  0  0   0  0 -1   0  1  0       1  0  0   0  0  1   0 -1  0
                       1  0  0   0  0 -1   0 -1  0      -1  0  0   0  0  1   0  1  0
           symrel2     1  0  0   0  1  0   0  0  1      -1  0  0   0 -1  0   0  0 -1
                      -1  0  0   0  1  0   0  0 -1       1  0  0   0 -1  0   0  0  1
                      -1  0  0   0 -1  0   0  0  1       1  0  0   0  1  0   0  0 -1
                       1  0  0   0 -1  0   0  0 -1      -1  0  0   0  1  0   0  0  1
                       0  1  0   1  0  0   0  0  1       0 -1  0  -1  0  0   0  0 -1
                       0 -1  0   1  0  0   0  0 -1       0  1  0  -1  0  0   0  0  1
                       0 -1  0  -1  0  0   0  0  1       0  1  0   1  0  0   0  0 -1
                       0  1  0  -1  0  0   0  0 -1       0 -1  0   1  0  0   0  0  1
                       0  0  1   1  0  0   0  1  0       0  0 -1  -1  0  0   0 -1  0
                       0  0 -1   1  0  0   0 -1  0       0  0  1  -1  0  0   0  1  0
                       0  0 -1  -1  0  0   0  1  0       0  0  1   1  0  0   0 -1  0
                       0  0  1  -1  0  0   0 -1  0       0  0 -1   1  0  0   0  1  0
                       1  0  0   0  0  1   0  1  0      -1  0  0   0  0 -1   0 -1  0
                      -1  0  0   0  0  1   0 -1  0       1  0  0   0  0 -1   0  1  0
                      -1  0  0   0  0 -1   0  1  0       1  0  0   0  0  1   0 -1  0
                       1  0  0   0  0 -1   0 -1  0      -1  0  0   0  0  1   0  1  0
                       0  1  0   0  0  1   1  0  0       0 -1  0   0  0 -1  -1  0  0
                       0 -1  0   0  0  1  -1  0  0       0  1  0   0  0 -1   1  0  0
                       0 -1  0   0  0 -1   1  0  0       0  1  0   0  0  1  -1  0  0
                       0  1  0   0  0 -1  -1  0  0       0 -1  0   0  0  1   1  0  0
                       0  0  1   0  1  0   1  0  0       0  0 -1   0 -1  0  -1  0  0
                       0  0 -1   0  1  0  -1  0  0       0  0  1   0 -1  0   1  0  0
                       0  0 -1   0 -1  0   1  0  0       0  0  1   0  1  0  -1  0  0
                       0  0  1   0 -1  0  -1  0  0       0  0 -1   0  1  0   1  0  0
            tnons1     0.0000000  0.0000000  0.0000000     0.0000000  0.0000000  0.0000000
                       0.0000000  0.0000000  0.0000000     0.0000000  0.0000000  0.0000000
                       0.0000000  0.0000000  0.0000000     0.0000000  0.0000000  0.0000000
                       0.0000000  0.0000000  0.0000000     0.0000000  0.0000000  0.0000000
                       0.0000000  0.0000000  0.0000000     0.0000000  0.0000000  0.0000000
                       0.0000000  0.0000000  0.0000000     0.0000000  0.0000000  0.0000000
                       0.0000000  0.0000000  0.0000000     0.0000000  0.0000000  0.0000000
                       0.0000000  0.0000000  0.0000000     0.0000000  0.0000000  0.0000000
            tnons2     0.0000000  0.0000000  0.0000000     0.0000000  0.0000000  0.0000000
                       0.0000000  0.0000000  0.0000000     0.0000000  0.0000000  0.0000000
                       0.0000000  0.0000000  0.0000000     0.0000000  0.0000000  0.0000000
                       0.0000000  0.0000000  0.0000000     0.0000000  0.0000000  0.0000000
                       0.0000000  0.0000000  0.0000000     0.0000000  0.0000000  0.0000000
                       0.0000000  0.0000000  0.0000000     0.0000000  0.0000000  0.0000000
                       0.0000000  0.0000000  0.0000000     0.0000000  0.0000000  0.0000000
                       0.0000000  0.0000000  0.0000000     0.0000000  0.0000000  0.0000000
                       0.0000000  0.0000000  0.0000000     0.0000000  0.0000000  0.0000000
                       0.0000000  0.0000000  0.0000000     0.0000000  0.0000000  0.0000000
                       0.0000000  0.0000000  0.0000000     0.0000000  0.0000000  0.0000000
                       0.0000000  0.0000000  0.0000000     0.0000000  0.0000000  0.0000000
                       0.0000000  0.0000000  0.0000000     0.0000000  0.0000000  0.0000000
                       0.0000000  0.0000000  0.0000000     0.0000000  0.0000000  0.0000000
                       0.0000000  0.0000000  0.0000000     0.0000000  0.0000000  0.0000000
                       0.0000000  0.0000000  0.0000000     0.0000000  0.0000000  0.0000000
                       0.0000000  0.0000000  0.0000000     0.0000000  0.0000000  0.0000000
                       0.0000000  0.0000000  0.0000000     0.0000000  0.0000000  0.0000000
                       0.0000000  0.0000000  0.0000000     0.0000000  0.0000000  0.0000000
                       0.0000000  0.0000000  0.0000000     0.0000000  0.0000000  0.0000000
                       0.0000000  0.0000000  0.0000000     0.0000000  0.0000000  0.0000000
                       0.0000000  0.0000000  0.0000000     0.0000000  0.0000000  0.0000000
                       0.0000000  0.0000000  0.0000000     0.0000000  0.0000000  0.0000000
                       0.0000000  0.0000000  0.0000000     0.0000000  0.0000000  0.0000000
           toldfe1     0.00000000E+00 Hartree
           toldfe2     1.00000000E-06 Hartree
           toldff1     5.00000000E-05
           toldff2     0.00000000E+00
           tolmxf1     5.00000000E-04
           tolmxf2     5.00000000E-05
            typat1     1  1
            typat2     1
           xangst1    -3.7042404601E-01  0.0000000000E+00  0.0000000000E+00
                       3.7042404601E-01  0.0000000000E+00  0.0000000000E+00
           xangst2     0.0000000000E+00  0.0000000000E+00  0.0000000000E+00
            xcart1    -7.0000000000E-01  0.0000000000E+00  0.0000000000E+00
                       7.0000000000E-01  0.0000000000E+00  0.0000000000E+00
            xcart2     0.0000000000E+00  0.0000000000E+00  0.0000000000E+00
             xred1    -7.0000000000E-02  0.0000000000E+00  0.0000000000E+00
                       7.0000000000E-02  0.0000000000E+00  0.0000000000E+00
             xred2     0.0000000000E+00  0.0000000000E+00  0.0000000000E+00
            znucl        1.00000

================================================================================

 chkinp: Checking input parameters for consistency, jdtset=   1.

 chkinp: Checking input parameters for consistency, jdtset=   2.
 DATA TYPE INFORMATION: 
 REAL:      Data type name: REAL(DP) 
            Kind value:      8
            Precision:      15
            Smallest nonnegligible quantity relative to 1:  0.22204460E-15
            Smallest positive number:                       0.22250739-307
            Largest representable number:                   0.17976931+309
 INTEGER:   Data type name: INTEGER(default) 
            Kind value: 4
            Bit size:   32
            Largest representable number: 2147483647
 LOGICAL:   Data type name: LOGICAL 
            Kind value: 4
 CHARACTER: Data type name: CHARACTER             Kind value: 1

  ==== OpenMP parallelism is OFF ====
 
  MPI-IO support is OFF

================================================================================
== DATASET  1 ==================================================================
-   nproc =    1


--- !COMMENT
src_file: getdim_nloc.F90
src_line: 153
message: |
    Despite there is only a local part to pseudopotential(s),
    lmnmax and lnmax are set to 1.
...


 getdim_nloc : deduce lmnmax  =   1, lnmax  =   1,
                      lmnmaxso=   1, lnmaxso=   1.
 Exchange-correlation functional for the present dataset will be:
  LDA: new Teter (4/93) with spin-polarized option - ixc=1
 Citation for XC functional:
  S. Goedecker, M. Teter, J. Huetter, PRB 54, 1703 (1996)

 Unit cell volume ucvol=  1.0000000E+03 bohr^3
 Angles (23,13,12)=  9.00000000E+01  9.00000000E+01  9.00000000E+01 degrees

 getcut: wavevector=  0.0000  0.0000  0.0000  ngfft=  30  30  30
         ecut(hartree)=     10.000   => boxcut(ratio)=   2.10744
- pspini: atom type   1  psp file is ./01h.pspgth
- pspatm: opening atomic psp file    ./01h.pspgth
- Goedecker-Teter-Hutter  Wed May  8 14:27:44 EDT 1996
-  1.00000   1.00000    960508                znucl, zion, pspdat
    2    1    0    0      2001   0.00000      pspcod,pspxc,lmax,lloc,mmax,r2well
 rloc=   0.2000000
  cc1=  -4.0663326; cc2=   0.6778322; cc3=   0.0000000; cc4=   0.0000000
  rrs=   0.0000000; h1s=   0.0000000; h2s=   0.0000000
  rrp=   0.0000000; h1p=   0.0000000
-  Local part computed in reciprocal space.

 pspatm : COMMENT -
  the projectors are not normalized,
  so that the KB energies are not consistent with 
  definition in PRB44, 8503 (1991). 
  However, this does not influence the results obtained hereafter.
 pspatm: epsatm=   -0.00480358
         --- l  ekb(1:nproj) -->
 pspatm: atomic psp has been read  and splines computed

  -1.92143215E-02                                ecore*ucvol(ha*bohr**3)
 ==== Info on pseudopotentials ====
  Norm-conserving pseudopotentials
  Number of pseudopotentials ..    1
  Number of types of atoms   ..    1
  Scalar calculation (no spin-orbit term)
  Nonlocal part applied using Legendre polynomials
  Highest angular momentum +1 .......   1
  Max number of (l,n)   components ..   1
  Max number of (l,m,n) components ..   1

 Info on the Q-grid used for form factors in spline form: 
   Number of q-points for radial functions ffspl ..   3001
   Number of q-points for vlspl ...................   3001
   vloc is computed in Reciprocal Space
   model core charge treated in real-space

  XC functional for type 1 is 1
  Pseudo valence available: no

 wfconv:     1 bands initialized randomly with npw=   752, for ikpt=     1
_setup2: Arith. and geom. avg. npw (full set) are    1503.000    1503.000
 initro: for itypat=  1, take decay length=      0.6000,
 initro: indeed, coreel=      0.0000, nval=  1 and densty=  0.0000E+00.

================================================================================

=== [ionmov= 3] Broyden-Fletcher-Goldfard-Shanno method (forces,Tot energy) 
================================================================================

--- Iteration: ( 1/10) Internal Cycle: (1/1)
--------------------------------------------------------------------------------

 Cartesian coordinates (xcart) [bohr]
 -7.00000000000000E-01  0.00000000000000E+00  0.00000000000000E+00
  7.00000000000000E-01  0.00000000000000E+00  0.00000000000000E+00
 Reduced coordinates (xred)
 -7.00000000000000E-02  0.00000000000000E+00  0.00000000000000E+00
  7.00000000000000E-02  0.00000000000000E+00  0.00000000000000E+00

---SELF-CONSISTENT-FIELD CONVERGENCE--------------------------------------------

 getcut: wavevector=  0.0000  0.0000  0.0000  ngfft=  30  30  30
         ecut(hartree)=     10.000   => boxcut(ratio)=   2.10744

--- !WARNING
src_file: mkdenpos.F90
src_line: 176
message: |
    Density went too small (lower than xc_denpos) at 38 points
    and was set to xc_denpos =   1.00E-14. Lowest was  -0.13E-13.
    Likely due to too low boxcut or too low ecut for pseudopotential core charge.
...


 ITER STEP NUMBER     1
 vtorho : nnsclo_now=2, note that nnsclo,dbl_nnsclo,istep=0 0 1
 non-scf iterations; kpt #     1  , k= (  0.00000  0.00000  0.00000  ), band residuals:
 res:  1.19E-02
 ene: -3.89E-01
 res:  2.79E-06
 ene: -3.91E-01
 vtowfk : number of one-way 3D ffts skipped in vtowfk until now =0
     eigenvalues (hartree) for    1  bands
              after    3 non-SCF iterations with    4 CG line minimizations
 -3.9123E-01

--- !WARNING
src_file: vtorho.F90
src_line: 1515
message: |
    For k-point number 1,
    The minimal occupation factor is  2.000.
    An adequate monitoring of convergence requires it to be  at most 0.01_dp.
    Action: increase slightly the number of bands.
...

 Total charge density [el/Bohr^3]
      Maximum=    2.8912E-01  at reduced coord.    0.0000    0.0000    0.0000
      Minimum=    0.0000E+00  at reduced coord.    0.5000    0.4333    0.3000
   Integrated=    2.0000E+00
 ETOT  1  -1.1013590048942    -1.101E+00 2.790E-06 8.389E+00 2.480E-02 2.480E-02
 scprqt: <Vxc>= -6.7856291E-02 hartree

Simple mixing update:
  residual square of the potential :   4.9436712089873991
 scfcv: previous iteration took 00 [s]

 ITER STEP NUMBER     2
 vtorho : nnsclo_now=2, note that nnsclo,dbl_nnsclo,istep=0 0 2
 non-scf iterations; kpt #     1  , k= (  0.00000  0.00000  0.00000  ), band residuals:
 res:  1.17E-05
 ene: -3.62E-01
 res:  6.08E-10
 ene: -3.62E-01
 vtowfk : number of one-way 3D ffts skipped in vtowfk until now =0
     eigenvalues (hartree) for    1  bands
              after    3 non-SCF iterations with    4 CG line minimizations
 -3.6206E-01

--- !WARNING
src_file: vtorho.F90
src_line: 1515
message: |
    For k-point number 1,
    The minimal occupation factor is  2.000.
    An adequate monitoring of convergence requires it to be  at most 0.01_dp.
    Action: increase slightly the number of bands.
...

 Total charge density [el/Bohr^3]
      Maximum=    2.6658E-01  at reduced coord.    0.0000    0.0000    0.0000
      Minimum=    0.0000E+00  at reduced coord.    0.1000    0.5000    0.5000
   Integrated=    2.0000E+00
 ETOT  2  -1.1036942492547    -2.335E-03 6.079E-10 2.843E-01 1.302E-02 3.782E-02
 scprqt: <Vxc>= -7.3921051E-02 hartree

 Pulay update with  1 previous iterations:
 mixing of old trial potential : alpha(m:m-4)=   1.12     -0.122
 scfcv: previous iteration took 00 [s]

 ITER STEP NUMBER     3
 vtorho : nnsclo_now=1, note that nnsclo,dbl_nnsclo,istep=0 0 3
 non-scf iterations; kpt #     1  , k= (  0.00000  0.00000  0.00000  ), band residuals:
 res:  1.95E-08
 ene: -3.67E-01
 vtowfk : number of one-way 3D ffts skipped in vtowfk until now =0
     eigenvalues (hartree) for    1  bands
              after    2 non-SCF iterations with    4 CG line minimizations
 -3.6718E-01

--- !WARNING
src_file: vtorho.F90
src_line: 1515
message: |
    For k-point number 1,
    The minimal occupation factor is  2.000.
    An adequate monitoring of convergence requires it to be  at most 0.01_dp.
    Action: increase slightly the number of bands.
...

 Total charge density [el/Bohr^3]
      Maximum=    2.7006E-01  at reduced coord.    0.0000    0.0000    0.0000
      Minimum=    0.0000E+00  at reduced coord.    0.1000    0.5000    0.5000
   Integrated=    2.0000E+00
 ETOT  3  -1.1037171066576    -2.286E-05 1.947E-08 1.545E-02 1.194E-03 3.662E-02
 scprqt: <Vxc>= -7.3878867E-02 hartree

 Pulay update with  2 previous iterations:
 mixing of old trial potential : alpha(m:m-4)=   1.07     -0.312E-01 -0.365E-01
 scfcv: previous iteration took 00 [s]

 ITER STEP NUMBER     4
 vtorho : nnsclo_now=1, note that nnsclo,dbl_nnsclo,istep=0 0 4
 non-scf iterations; kpt #     1  , k= (  0.00000  0.00000  0.00000  ), band residuals:
 res:  3.08E-08
 ene: -3.65E-01
 vtowfk : number of one-way 3D ffts skipped in vtowfk until now =0
     eigenvalues (hartree) for    1  bands
              after    2 non-SCF iterations with    4 CG line minimizations
 -3.6472E-01

--- !WARNING
src_file: vtorho.F90
src_line: 1515
message: |
    For k-point number 1,
    The minimal occupation factor is  2.000.
    An adequate monitoring of convergence requires it to be  at most 0.01_dp.
    Action: increase slightly the number of bands.
...

 Total charge density [el/Bohr^3]
      Maximum=    2.6898E-01  at reduced coord.    0.0000    0.0000    0.0000
      Minimum=    0.0000E+00  at reduced coord.    0.1000    0.5000    0.5000
   Integrated=    2.0000E+00
 ETOT  4  -1.1037223545264    -5.248E-06 3.080E-08 2.641E-04 8.484E-04 3.747E-02
 scprqt: <Vxc>= -7.4192430E-02 hartree

 Pulay update with  3 previous iterations:
 mixing of old trial potential : alpha(m:m-4)=   1.17     -0.159     -0.215E-01  0.115E-01
 scfcv: previous iteration took 00 [s]

 ITER STEP NUMBER     5
 vtorho : nnsclo_now=1, note that nnsclo,dbl_nnsclo,istep=0 0 5
 non-scf iterations; kpt #     1  , k= (  0.00000  0.00000  0.00000  ), band residuals:
 res:  3.79E-10
 ene: -3.65E-01
 vtowfk : number of one-way 3D ffts skipped in vtowfk until now =0
     eigenvalues (hartree) for    1  bands
              after    2 non-SCF iterations with    4 CG line minimizations
 -3.6528E-01

--- !WARNING
src_file: vtorho.F90
src_line: 1515
message: |
    For k-point number 1,
    The minimal occupation factor is  2.000.
    An adequate monitoring of convergence requires it to be  at most 0.01_dp.
    Action: increase slightly the number of bands.
...

 Total charge density [el/Bohr^3]
      Maximum=    2.6908E-01  at reduced coord.    0.0000    0.0000    0.0000
      Minimum=    0.0000E+00  at reduced coord.    0.1000    0.5000    0.5000
   Integrated=    2.0000E+00
 ETOT  5  -1.1037224211663    -6.664E-08 3.790E-10 8.035E-06 6.596E-05 3.740E-02
 scprqt: <Vxc>= -7.4156458E-02 hartree

 Pulay update with  4 previous iterations:
 mixing of old trial potential : alpha(m:m-4)=   1.08     -0.782E-01 -0.435E-02  0.130E-03 -0.135E-03
 scfcv: previous iteration took 00 [s]

 ITER STEP NUMBER     6
 vtorho : nnsclo_now=1, note that nnsclo,dbl_nnsclo,istep=0 0 6
 non-scf iterations; kpt #     1  , k= (  0.00000  0.00000  0.00000  ), band residuals:
 res:  1.92E-13
 ene: -3.65E-01
 vtowfk : number of one-way 3D ffts skipped in vtowfk until now =0
     eigenvalues (hartree) for    1  bands
              after    2 non-SCF iterations with    4 CG line minimizations
 -3.6525E-01
 Total charge density [el/Bohr^3]
      Maximum=    2.6907E-01  at reduced coord.    0.0000    0.0000    0.0000
      Minimum=    0.0000E+00  at reduced coord.    0.1000    0.5000    0.5000
   Integrated=    2.0000E+00
 ETOT  6  -1.1037224213119    -1.456E-10 1.920E-13 3.970E-07 1.754E-06 3.741E-02
 scprqt: <Vxc>= -7.4158112E-02 hartree

 Pulay update with  5 previous iterations:
 mixing of old trial potential : alpha(m:m-4)=   1.17     -0.151     -0.221E-01  0.554E-02  0.855E-04
 scfcv: previous iteration took 00 [s]

 ITER STEP NUMBER     7
 vtorho : nnsclo_now=1, note that nnsclo,dbl_nnsclo,istep=0 0 7
 non-scf iterations; kpt #     1  , k= (  0.00000  0.00000  0.00000  ), band residuals:
 res:  9.26E-14
 ene: -3.65E-01
 vtowfk : number of one-way 3D ffts skipped in vtowfk until now =0
     eigenvalues (hartree) for    1  bands
              after    2 non-SCF iterations with    4 CG line minimizations
 -3.6526E-01
 Total charge density [el/Bohr^3]
      Maximum=    2.6907E-01  at reduced coord.    0.0000    0.0000    0.0000
      Minimum=    0.0000E+00  at reduced coord.    0.1000    0.5000    0.5000
   Integrated=    2.0000E+00
 ETOT  7  -1.1037224213379    -2.604E-11 9.259E-14 9.779E-09 1.418E-06 3.740E-02
 scprqt: <Vxc>= -7.4157410E-02 hartree

 At SCF step    7, forces are converged : 
  for the second time, max diff in force=  1.418E-06 < toldff=  5.000E-05

 Cartesian components of stress tensor (hartree/bohr^3)
  sigma(1 1)= -1.64354976E-05  sigma(3 2)=  0.00000000E+00
  sigma(2 2)=  3.60114991E-05  sigma(3 1)=  0.00000000E+00
  sigma(3 3)=  3.60114991E-05  sigma(2 1)=  0.00000000E+00

fftdatar_write: about to write data to: H2_o_DS1_TIM1_DEN with iomode IO_MODE_FORTRAN
 IO operation completed. cpu_time:       0.0 [s], walltime:       0.0 [s]

---OUTPUT-----------------------------------------------------------------------

 Cartesian coordinates (xcart) [bohr]
 -7.00000000000000E-01  0.00000000000000E+00  0.00000000000000E+00
  7.00000000000000E-01  0.00000000000000E+00  0.00000000000000E+00
 Reduced coordinates (xred)
 -7.00000000000000E-02  0.00000000000000E+00  0.00000000000000E+00
  7.00000000000000E-02  0.00000000000000E+00  0.00000000000000E+00
 Cartesian forces (fcart) [Ha/bohr]; max,rms= 3.74043E-02 2.15954E-02 (free atoms)
 -3.74042929459289E-02 -0.00000000000000E+00 -0.00000000000000E+00
  3.74042929459289E-02 -0.00000000000000E+00 -0.00000000000000E+00
 Reduced forces (fred)
  3.74042929459289E-01  0.00000000000000E+00  0.00000000000000E+00
 -3.74042929459289E-01  0.00000000000000E+00  0.00000000000000E+00
 Total energy (etotal) [Ha]= -1.10372242133792E+00
 fconv : at Broyd/MD step   1, gradients have not converged yet. 
  max grad (force/stress) = 3.7404E-02 > tolmxf= 5.0000E-04 ha/bohr (free atoms)

 Geometry Optimization Precondition:           0
Inverse hessian has been initialized.
 EXIT:           1           1
 mover: previous time step took 00 [s]

--- Iteration: ( 2/10) Internal Cycle: (1/1)
--------------------------------------------------------------------------------

 Cartesian coordinates (xcart) [bohr]
 -7.37404292945929E-01  0.00000000000000E+00  0.00000000000000E+00
  7.37404292945929E-01  0.00000000000000E+00  0.00000000000000E+00
 Reduced coordinates (xred)
 -7.37404292945929E-02  0.00000000000000E+00  0.00000000000000E+00
  7.37404292945929E-02  0.00000000000000E+00  0.00000000000000E+00

---SELF-CONSISTENT-FIELD CONVERGENCE--------------------------------------------

 getcut: wavevector=  0.0000  0.0000  0.0000  ngfft=  30  30  30
         ecut(hartree)=     10.000   => boxcut(ratio)=   2.10744

 ITER STEP NUMBER     1
 vtorho : nnsclo_now=2, note that nnsclo,dbl_nnsclo,istep=0 0 1
 non-scf iterations; kpt #     1  , k= (  0.00000  0.00000  0.00000  ), band residuals:
 res:  4.62E-06
 ene: -3.54E-01
 res:  2.50E-10
 ene: -3.54E-01
 vtowfk : number of one-way 3D ffts skipped in vtowfk until now =0
     eigenvalues (hartree) for    1  bands
              after    3 non-SCF iterations with    4 CG line minimizations
 -3.5403E-01
 Total charge density [el/Bohr^3]
      Maximum=    2.4544E-01  at reduced coord.    0.0000    0.0000    0.0000
      Minimum=    0.0000E+00  at reduced coord.    0.0667    0.5000    0.5000
   Integrated=    2.0000E+00
 ETOT  1  -1.1055395556802    -1.106E+00 2.497E-10 4.973E-02 2.480E-02 1.261E-02
 scprqt: <Vxc>= -7.6054355E-02 hartree

Simple mixing update:
  residual square of the potential :   3.2313305888917419E-002
 scfcv: previous iteration took 00 [s]

 ITER STEP NUMBER     2
 vtorho : nnsclo_now=2, note that nnsclo,dbl_nnsclo,istep=0 0 2
 non-scf iterations; kpt #     1  , k= (  0.00000  0.00000  0.00000  ), band residuals:
 res:  7.14E-08
 ene: -3.59E-01
 res:  3.02E-12
 ene: -3.59E-01
 vtowfk : number of one-way 3D ffts skipped in vtowfk until now =0
     eigenvalues (hartree) for    1  bands
              after    3 non-SCF iterations with    4 CG line minimizations
 -3.5929E-01
 Total charge density [el/Bohr^3]
      Maximum=    2.4722E-01  at reduced coord.    0.0000    0.0000    0.0000
      Minimum=    1.8541E-08  at reduced coord.    0.0667    0.5000    0.5000
   Integrated=    2.0000E+00
 ETOT  2  -1.1055522370018    -1.268E-05 3.023E-12 1.330E-03 2.024E-04 1.240E-02
 scprqt: <Vxc>= -7.5621918E-02 hartree

 Pulay update with  1 previous iterations:
 mixing of old trial potential : alpha(m:m-4)=   1.04     -0.408E-01
 scfcv: previous iteration took 00 [s]

 ITER STEP NUMBER     3
 vtorho : nnsclo_now=1, note that nnsclo,dbl_nnsclo,istep=0 0 3
 non-scf iterations; kpt #     1  , k= (  0.00000  0.00000  0.00000  ), band residuals:
 res:  2.48E-09
 ene: -3.59E-01
 vtowfk : number of one-way 3D ffts skipped in vtowfk until now =0
     eigenvalues (hartree) for    1  bands
              after    2 non-SCF iterations with    4 CG line minimizations
 -3.5868E-01
 Total charge density [el/Bohr^3]
      Maximum=    2.4689E-01  at reduced coord.    0.0000    0.0000    0.0000
      Minimum=    1.7347E-08  at reduced coord.    0.0667    0.5000    0.5000
   Integrated=    2.0000E+00
 ETOT  3  -1.1055525240950    -2.871E-07 2.475E-09 2.405E-04 2.101E-04 1.261E-02
 scprqt: <Vxc>= -7.5667135E-02 hartree

 Pulay update with  2 previous iterations:
 mixing of old trial potential : alpha(m:m-4)=   1.16     -0.122     -0.369E-01
 scfcv: previous iteration took 00 [s]

 ITER STEP NUMBER     4
 vtorho : nnsclo_now=1, note that nnsclo,dbl_nnsclo,istep=0 0 4
 non-scf iterations; kpt #     1  , k= (  0.00000  0.00000  0.00000  ), band residuals:
 res:  1.77E-10
 ene: -3.59E-01
 vtowfk : number of one-way 3D ffts skipped in vtowfk until now =0
     eigenvalues (hartree) for    1  bands
              after    2 non-SCF iterations with    4 CG line minimizations
 -3.5896E-01
 Total charge density [el/Bohr^3]
      Maximum=    2.4696E-01  at reduced coord.    0.0000    0.0000    0.0000
      Minimum=    1.8471E-08  at reduced coord.    0.0667    0.5000    0.5000
   Integrated=    2.0000E+00
 ETOT  4  -1.1055525566531    -3.256E-08 1.770E-10 5.268E-06 5.187E-05 1.256E-02
 scprqt: <Vxc>= -7.5640342E-02 hartree

 Pulay update with  3 previous iterations:
 mixing of old trial potential : alpha(m:m-4)=   1.12     -0.796E-01 -0.383E-01  0.278E-02
 scfcv: previous iteration took 00 [s]

 ITER STEP NUMBER     5
 vtorho : nnsclo_now=1, note that nnsclo,dbl_nnsclo,istep=0 0 5
 non-scf iterations; kpt #     1  , k= (  0.00000  0.00000  0.00000  ), band residuals:
 res:  3.13E-13
 ene: -3.59E-01
 vtowfk : number of one-way 3D ffts skipped in vtowfk until now =0
     eigenvalues (hartree) for    1  bands
              after    2 non-SCF iterations with    4 CG line minimizations
 -3.5893E-01
 Total charge density [el/Bohr^3]
      Maximum=    2.4696E-01  at reduced coord.    0.0000    0.0000    0.0000
      Minimum=    1.8577E-08  at reduced coord.    0.0667    0.5000    0.5000
   Integrated=    2.0000E+00
 ETOT  5  -1.1055525570209    -3.678E-10 3.130E-13 8.758E-08 2.693E-06 1.257E-02
 scprqt: <Vxc>= -7.5641119E-02 hartree

 Pulay update with  4 previous iterations:
 mixing of old trial potential : alpha(m:m-4)=   1.22     -0.237      0.742E-02  0.874E-02 -0.245E-03
 scfcv: previous iteration took 00 [s]

 ITER STEP NUMBER     6
 vtorho : nnsclo_now=1, note that nnsclo,dbl_nnsclo,istep=0 0 6
 non-scf iterations; kpt #     1  , k= (  0.00000  0.00000  0.00000  ), band residuals:
 res:  9.73E-16
 ene: -3.59E-01
 vtowfk : number of one-way 3D ffts skipped in vtowfk until now =0
     eigenvalues (hartree) for    1  bands
              after    2 non-SCF iterations with    4 CG line minimizations
 -3.5894E-01
 Total charge density [el/Bohr^3]
      Maximum=    2.4696E-01  at reduced coord.    0.0000    0.0000    0.0000
      Minimum=    1.8584E-08  at reduced coord.    0.0667    0.5000    0.5000
   Integrated=    2.0000E+00
 ETOT  6  -1.1055525570220    -1.124E-12 9.726E-16 1.992E-09 9.891E-08 1.257E-02
 scprqt: <Vxc>= -7.5641106E-02 hartree

 At SCF step    6, forces are converged : 
  for the second time, max diff in force=  9.891E-08 < toldff=  5.000E-05

 Cartesian components of stress tensor (hartree/bohr^3)
  sigma(1 1)=  2.14754028E-05  sigma(3 2)=  0.00000000E+00
  sigma(2 2)=  3.50015519E-05  sigma(3 1)=  0.00000000E+00
  sigma(3 3)=  3.50015519E-05  sigma(2 1)=  0.00000000E+00

fftdatar_write: about to write data to: H2_o_DS1_TIM2_DEN with iomode IO_MODE_FORTRAN
 IO operation completed. cpu_time:       0.0 [s], walltime:       0.0 [s]

---OUTPUT-----------------------------------------------------------------------

 Cartesian coordinates (xcart) [bohr]
 -7.37404292945929E-01  0.00000000000000E+00  0.00000000000000E+00
  7.37404292945929E-01  0.00000000000000E+00  0.00000000000000E+00
 Reduced coordinates (xred)
 -7.37404292945929E-02  0.00000000000000E+00  0.00000000000000E+00
  7.37404292945929E-02  0.00000000000000E+00  0.00000000000000E+00
 Cartesian forces (fcart) [Ha/bohr]; max,rms= 1.25652E-02 7.25449E-03 (free atoms)
 -1.25651504937954E-02 -0.00000000000000E+00 -0.00000000000000E+00
  1.25651504937954E-02 -0.00000000000000E+00 -0.00000000000000E+00
 Reduced forces (fred)
  1.25651504937954E-01  0.00000000000000E+00  0.00000000000000E+00
 -1.25651504937954E-01  0.00000000000000E+00  0.00000000000000E+00
 Total energy (etotal) [Ha]= -1.10555255702201E+00

 Difference of energy with previous step (new-old):
           Absolute (Ha)=-1.83014E-03
           Relative     =-1.65677E-03
 fconv : at Broyd/MD step   2, gradients have not converged yet. 
  max grad (force/stress) = 1.2565E-02 > tolmxf= 5.0000E-04 ha/bohr (free atoms)

 Geometry Optimization Precondition:           0
   line minimization, algorithm   4
                        lambda      etotal            dedv        d2edv2
   old point         :  0.0000E+00 -1.1037224213E+00 -2.7982E-03  2.0967E-03
   new point         :  1.0000E+00 -1.1055525570E+00 -9.3998E-04  1.6295E-03
   predicted point   :  1.6284E+00 -1.1058392391E+00  9.3248E-17  1.3659E-03

 EXIT:           1           1
 mover: previous time step took 00 [s]

--- Iteration: ( 3/10) Internal Cycle: (1/1)
--------------------------------------------------------------------------------

 Cartesian coordinates (xcart) [bohr]
 -7.60910157594300E-01  0.00000000000000E+00  0.00000000000000E+00
  7.60910157594300E-01  0.00000000000000E+00  0.00000000000000E+00
 Reduced coordinates (xred)
 -7.60910157594300E-02  0.00000000000000E+00  0.00000000000000E+00
  7.60910157594300E-02  0.00000000000000E+00  0.00000000000000E+00

---SELF-CONSISTENT-FIELD CONVERGENCE--------------------------------------------

 getcut: wavevector=  0.0000  0.0000  0.0000  ngfft=  30  30  30
         ecut(hartree)=     10.000   => boxcut(ratio)=   2.10744

 ITER STEP NUMBER     1
 vtorho : nnsclo_now=2, note that nnsclo,dbl_nnsclo,istep=0 0 1
 non-scf iterations; kpt #     1  , k= (  0.00000  0.00000  0.00000  ), band residuals:
 res:  1.80E-06
 ene: -3.52E-01
 res:  1.00E-10
 ene: -3.52E-01
 vtowfk : number of one-way 3D ffts skipped in vtowfk until now =0
     eigenvalues (hartree) for    1  bands
              after    3 non-SCF iterations with    4 CG line minimizations
 -3.5220E-01
 Total charge density [el/Bohr^3]
      Maximum=    2.3301E-01  at reduced coord.    0.0000    0.0000    0.0000
      Minimum=    0.0000E+00  at reduced coord.    0.0667    0.5000    0.5000
   Integrated=    2.0000E+00
 ETOT  1  -1.1058312013257    -1.106E+00 1.005E-10 1.884E-02 1.273E-02 1.627E-04
 scprqt: <Vxc>= -7.6807737E-02 hartree

Simple mixing update:
  residual square of the potential :   1.2348862088384762E-002
 scfcv: previous iteration took 00 [s]

 ITER STEP NUMBER     2
 vtorho : nnsclo_now=2, note that nnsclo,dbl_nnsclo,istep=0 0 2
 non-scf iterations; kpt #     1  , k= (  0.00000  0.00000  0.00000  ), band residuals:
 res:  2.66E-08
 ene: -3.55E-01
 res:  1.10E-12
 ene: -3.55E-01
 vtowfk : number of one-way 3D ffts skipped in vtowfk until now =0
     eigenvalues (hartree) for    1  bands
              after    3 non-SCF iterations with    4 CG line minimizations
 -3.5539E-01
 Total charge density [el/Bohr^3]
      Maximum=    2.3405E-01  at reduced coord.    0.0000    0.0000    0.0000
      Minimum=    0.0000E+00  at reduced coord.    0.0667    0.5000    0.5000
   Integrated=    2.0000E+00
 ETOT  2  -1.1058359487269    -4.747E-06 1.103E-12 5.003E-04 1.148E-04 2.775E-04
 scprqt: <Vxc>= -7.6543192E-02 hartree

 Pulay update with  1 previous iterations:
 mixing of old trial potential : alpha(m:m-4)=   1.04     -0.395E-01
 scfcv: previous iteration took 00 [s]

 ITER STEP NUMBER     3
 vtorho : nnsclo_now=1, note that nnsclo,dbl_nnsclo,istep=0 0 3
 non-scf iterations; kpt #     1  , k= (  0.00000  0.00000  0.00000  ), band residuals:
 res:  8.90E-10
 ene: -3.55E-01
 vtowfk : number of one-way 3D ffts skipped in vtowfk until now =0
     eigenvalues (hartree) for    1  bands
              after    2 non-SCF iterations with    4 CG line minimizations
 -3.5503E-01
 Total charge density [el/Bohr^3]
      Maximum=    2.3386E-01  at reduced coord.    0.0000    0.0000    0.0000
      Minimum=    0.0000E+00  at reduced coord.    0.0667    0.5000    0.5000
   Integrated=    2.0000E+00
 ETOT  3  -1.1058360527207    -1.040E-07 8.899E-10 8.926E-05 1.227E-04 1.548E-04
 scprqt: <Vxc>= -7.6570311E-02 hartree

 Pulay update with  2 previous iterations:
 mixing of old trial potential : alpha(m:m-4)=   1.16     -0.129     -0.355E-01
 scfcv: previous iteration took 00 [s]

 ITER STEP NUMBER     4
 vtorho : nnsclo_now=1, note that nnsclo,dbl_nnsclo,istep=0 0 4
 non-scf iterations; kpt #     1  , k= (  0.00000  0.00000  0.00000  ), band residuals:
 res:  6.20E-11
 ene: -3.55E-01
 vtowfk : number of one-way 3D ffts skipped in vtowfk until now =0
     eigenvalues (hartree) for    1  bands
              after    2 non-SCF iterations with    4 CG line minimizations
 -3.5519E-01
 Total charge density [el/Bohr^3]
      Maximum=    2.3390E-01  at reduced coord.    0.0000    0.0000    0.0000
      Minimum=    0.0000E+00  at reduced coord.    0.0667    0.5000    0.5000
   Integrated=    2.0000E+00
 ETOT  4  -1.1058360642148    -1.149E-08 6.205E-11 1.997E-06 2.954E-05 1.843E-04
 scprqt: <Vxc>= -7.6554218E-02 hartree

 Pulay update with  3 previous iterations:
 mixing of old trial potential : alpha(m:m-4)=   1.12     -0.791E-01 -0.390E-01  0.271E-02
 scfcv: previous iteration took 00 [s]

 ITER STEP NUMBER     5
 vtorho : nnsclo_now=1, note that nnsclo,dbl_nnsclo,istep=0 0 5
 non-scf iterations; kpt #     1  , k= (  0.00000  0.00000  0.00000  ), band residuals:
 res:  1.16E-13
 ene: -3.55E-01
 vtowfk : number of one-way 3D ffts skipped in vtowfk until now =0
     eigenvalues (hartree) for    1  bands
              after    2 non-SCF iterations with    4 CG line minimizations
 -3.5518E-01
 Total charge density [el/Bohr^3]
      Maximum=    2.3390E-01  at reduced coord.    0.0000    0.0000    0.0000
      Minimum=    0.0000E+00  at reduced coord.    0.0667    0.5000    0.5000
   Integrated=    2.0000E+00
 ETOT  5  -1.1058360643513    -1.365E-10 1.158E-13 3.325E-08 1.606E-06 1.827E-04
 scprqt: <Vxc>= -7.6554643E-02 hartree

 At SCF step    5, forces are converged : 
  for the second time, max diff in force=  1.606E-06 < toldff=  5.000E-05

 Cartesian components of stress tensor (hartree/bohr^3)
  sigma(1 1)=  4.24046801E-05  sigma(3 2)=  0.00000000E+00
  sigma(2 2)=  3.45803039E-05  sigma(3 1)=  0.00000000E+00
  sigma(3 3)=  3.45803039E-05  sigma(2 1)=  0.00000000E+00

fftdatar_write: about to write data to: H2_o_DS1_TIM3_DEN with iomode IO_MODE_FORTRAN
 IO operation completed. cpu_time:       0.0 [s], walltime:       0.0 [s]

---OUTPUT-----------------------------------------------------------------------

 Cartesian coordinates (xcart) [bohr]
 -7.60910157594300E-01  0.00000000000000E+00  0.00000000000000E+00
  7.60910157594300E-01  0.00000000000000E+00  0.00000000000000E+00
 Reduced coordinates (xred)
 -7.60910157594300E-02  0.00000000000000E+00  0.00000000000000E+00
  7.60910157594300E-02  0.00000000000000E+00  0.00000000000000E+00
 Cartesian forces (fcart) [Ha/bohr]; max,rms= 1.82705E-04 1.05485E-04 (free atoms)
  1.82705336844240E-04 -0.00000000000000E+00 -0.00000000000000E+00
 -1.82705336844240E-04 -0.00000000000000E+00 -0.00000000000000E+00
 Reduced forces (fred)
 -1.82705336844240E-03  0.00000000000000E+00  0.00000000000000E+00
  1.82705336844240E-03  0.00000000000000E+00  0.00000000000000E+00
 Total energy (etotal) [Ha]= -1.10583606435129E+00

 Difference of energy with previous step (new-old):
           Absolute (Ha)=-2.83507E-04
           Relative     =-2.56407E-04

 At Broyd/MD step   3, gradients are converged : 
  max grad (force/stress) = 1.8271E-04 < tolmxf= 5.0000E-04 ha/bohr (free atoms)

 Geometry Optimization Precondition:           0
================================================================================

 ----iterations are completed or convergence reached----


 === Gap info ===
Not enough states to calculate the band gap.
 Mean square residual over all n,k,spin=   1.1578E-13; max=  1.1578E-13
   0.0000  0.0000  0.0000    1  1.15783E-13 kpt; spin; max resid(k); each band:
  1.16E-13

 outwf: write wavefunction to file H2_o_DS1_WFK, with iomode -1
 outwf with iomode: -1, cpu_time:     0.00[s], walltime:     0.00 [s]
 prteigrs : about to open file H2_o_DS1_EIG
 Fermi (or HOMO) energy (hartree) =  -0.35518   Average Vxc (hartree)=  -0.07655
 Eigenvalues (hartree) for nkpt=   1  k points:
 kpt#   1, nband=  1, wtk=  1.00000, kpt=  0.0000  0.0000  0.0000 (reduced coord)
  -0.35518
 Total charge density [el/Bohr^3]
      Maximum=    2.3390E-01  at reduced coord.    0.0000    0.0000    0.0000
 Next maximum=    2.3151E-01  at reduced coord.    0.9667    0.0000    0.0000
      Minimum=    0.0000E+00  at reduced coord.    0.0667    0.5000    0.5000
 Next minimum=    0.0000E+00  at reduced coord.    0.9333    0.5000    0.5000
   Integrated=    2.0000E+00

 Cartesian components of stress tensor (hartree/bohr^3)
  sigma(1 1)=  4.24046801E-05  sigma(3 2)=  0.00000000E+00
  sigma(2 2)=  3.45803039E-05  sigma(3 1)=  0.00000000E+00
  sigma(3 3)=  3.45803039E-05  sigma(2 1)=  0.00000000E+00

-Cartesian components of stress tensor (GPa)         [Pressure= -1.0941E+00 GPa]
- sigma(1 1)=  1.24758855E+00  sigma(3 2)=  0.00000000E+00
- sigma(2 2)=  1.01738749E+00  sigma(3 1)=  0.00000000E+00
- sigma(3 3)=  1.01738749E+00  sigma(2 1)=  0.00000000E+00

================================================================================
== DATASET  2 ==================================================================
-   nproc =    1


--- !COMMENT
src_file: getdim_nloc.F90
src_line: 153
message: |
    Despite there is only a local part to pseudopotential(s),
    lmnmax and lnmax are set to 1.
...


 getdim_nloc : deduce lmnmax  =   1, lnmax  =   1,
                      lmnmaxso=   1, lnmaxso=   1.
 Exchange-correlation functional for the present dataset will be:
  LDA: new Teter (4/93) with spin-polarized option - ixc=1
 Citation for XC functional:
  S. Goedecker, M. Teter, J. Huetter, PRB 54, 1703 (1996)

 Unit cell volume ucvol=  1.0000000E+03 bohr^3
 Angles (23,13,12)=  9.00000000E+01  9.00000000E+01  9.00000000E+01 degrees

 getcut: wavevector=  0.0000  0.0000  0.0000  ngfft=  30  30  30
         ecut(hartree)=     10.000   => boxcut(ratio)=   2.10744
  -4.80358038E-03                                ecore*ucvol(ha*bohr**3)
 newkpt: spin channel isppol2 =     1
 wfconv:     1 bands initialized randomly with npw=   752, for ikpt=     1
 newkpt: spin channel isppol2 =     2
 wfconv:     1 bands initialized randomly with npw=   752, for ikpt=     1
_setup2: Arith. and geom. avg. npw (full set) are    1503.000    1503.000
 initro: for itypat=  1, take decay length=      0.6000,
 initro: indeed, coreel=      0.0000, nval=  1 and densty=  0.0000E+00.

================================================================================

 getcut: wavevector=  0.0000  0.0000  0.0000  ngfft=  30  30  30
         ecut(hartree)=     10.000   => boxcut(ratio)=   2.10744

--- !WARNING
src_file: mkdenpos.F90
src_line: 176
message: |
    Density went too small (lower than xc_denpos) at 3 points
    and was set to xc_denpos =   1.00E-14. Lowest was  -0.19E-13.
    Likely due to too low boxcut or too low ecut for pseudopotential core charge.
...


 ITER STEP NUMBER     1
 vtorho : nnsclo_now=2, note that nnsclo,dbl_nnsclo,istep=0 0 1
 non-scf iterations; kpt #     1  , k= (  0.00000  0.00000  0.00000  ), band residuals:
 res:  6.86E-03
 ene: -2.24E-01
 res:  5.82E-06
 ene: -2.27E-01
 vtowfk : number of one-way 3D ffts skipped in vtowfk until now =0
     eigenvalues (hartree) for    1  bands
              after    3 non-SCF iterations with    4 CG line minimizations
 -2.2664E-01
 non-scf iterations; kpt #     1  , k= (  0.00000  0.00000  0.00000  ), band residuals:
 res:  5.28E-03
 ene: -6.79E-02
 res:  4.77E-06
 ene: -7.09E-02
 vtowfk : number of one-way 3D ffts skipped in vtowfk until now =1
     eigenvalues (hartree) for    1  bands
              after    3 non-SCF iterations with    4 CG line minimizations
 -7.0935E-02
 Total charge density [el/Bohr^3]
      Maximum=    1.3712E-01  at reduced coord.    0.0000    0.0000    0.0000
      Minimum=    3.1638E-06  at reduced coord.    0.4333    0.4333    0.4333
   Integrated=    1.0000E+00
 Spin up density      [el/Bohr^3]
      Maximum=    1.3712E-01  at reduced coord.    0.0000    0.0000    0.0000
      Minimum=    3.1638E-06  at reduced coord.    0.4333    0.4333    0.4333
   Integrated=    1.0000E+00
 Spin down density    [el/Bohr^3]
      Maximum=    0.0000E+00  at reduced coord.    0.9667    0.9667    0.9667
      Minimum=    0.0000E+00  at reduced coord.    0.0000    0.0000    0.0000
   Integrated=    0.0000E+00
 Magnetization (spin up - spin down) [el/Bohr^3]
      Maximum=    1.3712E-01  at reduced coord.    0.0000    0.0000    0.0000
      Minimum=    3.1638E-06  at reduced coord.    0.4333    0.4333    0.4333
   Integrated=    1.0000E+00
 Relative magnetization (=zeta, between -1 and 1)
      Maximum=    1.0000E+00  at reduced coord.    0.9667    0.9667    0.9667
      Minimum=    1.0000E+00  at reduced coord.    0.0000    0.0000    0.0000
 ETOT  1 -0.46980757227245    -4.698E-01 5.815E-06 6.237E+00 0.000E+00 0.000E+00
 scprqt: <Vxc>= -6.7239315E-02 hartree

Simple mixing update:
  residual square of the potential :   3.7662131084440511
 scfcv: previous iteration took 00 [s]

 ITER STEP NUMBER     2
 vtorho : nnsclo_now=2, note that nnsclo,dbl_nnsclo,istep=0 0 2
 non-scf iterations; kpt #     1  , k= (  0.00000  0.00000  0.00000  ), band residuals:
 res:  1.10E-07
 ene: -2.65E-01
 res:  2.52E-11
 ene: -2.65E-01
 vtowfk : number of one-way 3D ffts skipped in vtowfk until now =1
     eigenvalues (hartree) for    1  bands
              after    3 non-SCF iterations with    4 CG line minimizations
 -2.6478E-01
 non-scf iterations; kpt #     1  , k= (  0.00000  0.00000  0.00000  ), band residuals:
 res:  1.40E-07
 ene: -1.09E-01
 res:  4.00E-13
 ene: -1.09E-01
 vtowfk : number of one-way 3D ffts skipped in vtowfk until now =2
     eigenvalues (hartree) for    1  bands
              after    3 non-SCF iterations with    4 CG line minimizations
 -1.0870E-01
 Total charge density [el/Bohr^3]
      Maximum=    1.4128E-01  at reduced coord.    0.0000    0.0000    0.0000
      Minimum=    3.3849E-06  at reduced coord.    0.4667    0.4333    0.4333
   Integrated=    1.0000E+00
 Spin up density      [el/Bohr^3]
      Maximum=    1.4128E-01  at reduced coord.    0.0000    0.0000    0.0000
      Minimum=    3.3849E-06  at reduced coord.    0.4667    0.4333    0.4333
   Integrated=    1.0000E+00
 Spin down density    [el/Bohr^3]
      Maximum=    0.0000E+00  at reduced coord.    0.9667    0.9667    0.9667
      Minimum=    0.0000E+00  at reduced coord.    0.0000    0.0000    0.0000
   Integrated=    0.0000E+00
 Magnetization (spin up - spin down) [el/Bohr^3]
      Maximum=    1.4128E-01  at reduced coord.    0.0000    0.0000    0.0000
      Minimum=    3.3849E-06  at reduced coord.    0.4667    0.4333    0.4333
   Integrated=    1.0000E+00
 Relative magnetization (=zeta, between -1 and 1)
      Maximum=    1.0000E+00  at reduced coord.    0.9667    0.9667    0.9667
      Minimum=    1.0000E+00  at reduced coord.    0.0000    0.0000    0.0000
 ETOT  2 -0.47008829985620    -2.807E-04 2.519E-11 4.994E-01 0.000E+00 0.000E+00
 scprqt: <Vxc>= -6.8385566E-02 hartree

 Pulay update with  1 previous iterations:
 mixing of old trial potential : alpha(m:m-4)=   1.31     -0.306
 scfcv: previous iteration took 00 [s]

 ITER STEP NUMBER     3
 vtorho : nnsclo_now=1, note that nnsclo,dbl_nnsclo,istep=0 0 3
 non-scf iterations; kpt #     1  , k= (  0.00000  0.00000  0.00000  ), band residuals:
 res:  1.44E-07
 ene: -2.63E-01
 vtowfk : number of one-way 3D ffts skipped in vtowfk until now =2
     eigenvalues (hartree) for    1  bands
              after    2 non-SCF iterations with    4 CG line minimizations
 -2.6264E-01
 non-scf iterations; kpt #     1  , k= (  0.00000  0.00000  0.00000  ), band residuals:
 res:  1.63E-09
 ene: -1.10E-01
 vtowfk : number of one-way 3D ffts skipped in vtowfk until now =3
     eigenvalues (hartree) for    1  bands
              after    2 non-SCF iterations with    4 CG line minimizations
 -1.0994E-01
 Total charge density [el/Bohr^3]
      Maximum=    1.4050E-01  at reduced coord.    0.0000    0.0000    0.0000
      Minimum=    3.5266E-06  at reduced coord.    0.4667    0.4333    0.4333
   Integrated=    1.0000E+00
 Spin up density      [el/Bohr^3]
      Maximum=    1.4050E-01  at reduced coord.    0.0000    0.0000    0.0000
      Minimum=    3.5266E-06  at reduced coord.    0.4667    0.4333    0.4333
   Integrated=    1.0000E+00
 Spin down density    [el/Bohr^3]
      Maximum=    0.0000E+00  at reduced coord.    0.9667    0.9667    0.9667
      Minimum=    0.0000E+00  at reduced coord.    0.0000    0.0000    0.0000
   Integrated=    0.0000E+00
 Magnetization (spin up - spin down) [el/Bohr^3]
      Maximum=    1.4050E-01  at reduced coord.    0.0000    0.0000    0.0000
      Minimum=    3.5266E-06  at reduced coord.    0.4667    0.4333    0.4333
   Integrated=    1.0000E+00
 Relative magnetization (=zeta, between -1 and 1)
      Maximum=    1.0000E+00  at reduced coord.    0.9667    0.9667    0.9667
      Minimum=    1.0000E+00  at reduced coord.    0.0000    0.0000    0.0000
 ETOT  3 -0.47010514260039    -1.684E-05 1.440E-07 1.388E-02 0.000E+00 0.000E+00
 scprqt: <Vxc>= -6.9064537E-02 hartree

 Pulay update with  2 previous iterations:
 mixing of old trial potential : alpha(m:m-4)=   1.20     -0.241      0.395E-01
 scfcv: previous iteration took 00 [s]

 ITER STEP NUMBER     4
 vtorho : nnsclo_now=1, note that nnsclo,dbl_nnsclo,istep=0 0 4
 non-scf iterations; kpt #     1  , k= (  0.00000  0.00000  0.00000  ), band residuals:
 res:  3.07E-10
 ene: -2.64E-01
 vtowfk : number of one-way 3D ffts skipped in vtowfk until now =3
     eigenvalues (hartree) for    1  bands
              after    2 non-SCF iterations with    4 CG line minimizations
 -2.6400E-01
 non-scf iterations; kpt #     1  , k= (  0.00000  0.00000  0.00000  ), band residuals:
 res:  2.59E-09
 ene: -1.11E-01
 vtowfk : number of one-way 3D ffts skipped in vtowfk until now =4
     eigenvalues (hartree) for    1  bands
              after    2 non-SCF iterations with    4 CG line minimizations
 -1.1110E-01
 Total charge density [el/Bohr^3]
      Maximum=    1.4051E-01  at reduced coord.    0.0000    0.0000    0.0000
      Minimum=    3.4750E-06  at reduced coord.    0.4667    0.4333    0.4333
   Integrated=    1.0000E+00
 Spin up density      [el/Bohr^3]
      Maximum=    1.4051E-01  at reduced coord.    0.0000    0.0000    0.0000
      Minimum=    3.4750E-06  at reduced coord.    0.4667    0.4333    0.4333
   Integrated=    1.0000E+00
 Spin down density    [el/Bohr^3]
      Maximum=    0.0000E+00  at reduced coord.    0.9667    0.9667    0.9667
      Minimum=    0.0000E+00  at reduced coord.    0.0000    0.0000    0.0000
   Integrated=    0.0000E+00
 Magnetization (spin up - spin down) [el/Bohr^3]
      Maximum=    1.4051E-01  at reduced coord.    0.0000    0.0000    0.0000
      Minimum=    3.4750E-06  at reduced coord.    0.4667    0.4333    0.4333
   Integrated=    1.0000E+00
 Relative magnetization (=zeta, between -1 and 1)
      Maximum=    1.0000E+00  at reduced coord.    0.9667    0.9667    0.9667
      Minimum=    1.0000E+00  at reduced coord.    0.0000    0.0000    0.0000
 ETOT  4 -0.47010529456329    -1.520E-07 2.587E-09 4.788E-04 0.000E+00 0.000E+00
 scprqt: <Vxc>= -6.9005764E-02 hartree

 Pulay update with  3 previous iterations:
 mixing of old trial potential : alpha(m:m-4)=   1.19     -0.191      0.459E-02  0.121E-02
 scfcv: previous iteration took 00 [s]

 ITER STEP NUMBER     5
 vtorho : nnsclo_now=1, note that nnsclo,dbl_nnsclo,istep=0 0 5
 non-scf iterations; kpt #     1  , k= (  0.00000  0.00000  0.00000  ), band residuals:
 res:  1.47E-11
 ene: -2.64E-01
 vtowfk : number of one-way 3D ffts skipped in vtowfk until now =4
     eigenvalues (hartree) for    1  bands
              after    2 non-SCF iterations with    4 CG line minimizations
 -2.6414E-01
 non-scf iterations; kpt #     1  , k= (  0.00000  0.00000  0.00000  ), band residuals:
 res:  1.37E-11
 ene: -1.11E-01
 vtowfk : number of one-way 3D ffts skipped in vtowfk until now =5
     eigenvalues (hartree) for    1  bands
              after    2 non-SCF iterations with    4 CG line minimizations
 -1.1112E-01
 Total charge density [el/Bohr^3]
      Maximum=    1.4053E-01  at reduced coord.    0.0000    0.0000    0.0000
      Minimum=    3.4544E-06  at reduced coord.    0.4667    0.4333    0.4333
   Integrated=    1.0000E+00
 Spin up density      [el/Bohr^3]
      Maximum=    1.4053E-01  at reduced coord.    0.0000    0.0000    0.0000
      Minimum=    3.4544E-06  at reduced coord.    0.4667    0.4333    0.4333
   Integrated=    1.0000E+00
 Spin down density    [el/Bohr^3]
      Maximum=    0.0000E+00  at reduced coord.    0.9667    0.9667    0.9667
      Minimum=    0.0000E+00  at reduced coord.    0.0000    0.0000    0.0000
   Integrated=    0.0000E+00
 Magnetization (spin up - spin down) [el/Bohr^3]
      Maximum=    1.4053E-01  at reduced coord.    0.0000    0.0000    0.0000
      Minimum=    3.4544E-06  at reduced coord.    0.4667    0.4333    0.4333
   Integrated=    1.0000E+00
 Relative magnetization (=zeta, between -1 and 1)
      Maximum=    1.0000E+00  at reduced coord.    0.9667    0.9667    0.9667
      Minimum=    1.0000E+00  at reduced coord.    0.0000    0.0000    0.0000
 ETOT  5 -0.47010531489229    -2.033E-08 1.467E-11 1.064E-05 0.000E+00 0.000E+00
 scprqt: <Vxc>= -6.8979421E-02 hartree

 At SCF step    5, etot is converged : 
  for the second time, diff in etot=  2.033E-08 < toldfe=  1.000E-06

 Cartesian components of stress tensor (hartree/bohr^3)
  sigma(1 1)=  1.80449486E-05  sigma(3 2)=  0.00000000E+00
  sigma(2 2)=  1.80449486E-05  sigma(3 1)=  0.00000000E+00
  sigma(3 3)=  1.80449486E-05  sigma(2 1)=  0.00000000E+00

fftdatar_write: about to write data to: H2_o_DS2_DEN with iomode IO_MODE_FORTRAN
 IO operation completed. cpu_time:       0.0 [s], walltime:       0.0 [s]
================================================================================

 ----iterations are completed or convergence reached----


 === Gap info ===
Not enough states to calculate the band gap.
 Mean square residual over all n,k,spin=   1.4158E-11; max=  1.4666E-11
   0.0000  0.0000  0.0000    1  1.46657E-11 kpt; spin; max resid(k); each band:
  1.47E-11
   0.0000  0.0000  0.0000    2  1.36504E-11 kpt; spin; max resid(k); each band:
  1.37E-11

 outwf: write wavefunction to file H2_o_DS2_WFK, with iomode -1
 outwf with iomode: -1, cpu_time:     0.00[s], walltime:     0.00 [s]
 prteigrs : about to open file H2_o_DS2_EIG
 Fermi (or HOMO) energy (hartree) =  -0.26414   Average Vxc (hartree)=  -0.06898
 Eigenvalues (hartree) for nkpt=   1  k points, SPIN UP:
 kpt#   1, nband=  1, wtk=  1.00000, kpt=  0.0000  0.0000  0.0000 (reduced coord)
  -0.26414
 Eigenvalues (hartree) for nkpt=   1  k points, SPIN DOWN:
 kpt#   1, nband=  1, wtk=  1.00000, kpt=  0.0000  0.0000  0.0000 (reduced coord)
  -0.11112
 Total charge density [el/Bohr^3]
      Maximum=    1.4053E-01  at reduced coord.    0.0000    0.0000    0.0000
 Next maximum=    1.2019E-01  at reduced coord.    0.0000    0.0000    0.9667
      Minimum=    3.4544E-06  at reduced coord.    0.4667    0.4333    0.4333
 Next minimum=    3.4544E-06  at reduced coord.    0.5333    0.4333    0.4333
   Integrated=    1.0000E+00
 Spin up density      [el/Bohr^3]
      Maximum=    1.4053E-01  at reduced coord.    0.0000    0.0000    0.0000
 Next maximum=    1.2019E-01  at reduced coord.    0.0000    0.0000    0.9667
      Minimum=    3.4544E-06  at reduced coord.    0.4667    0.4333    0.4333
 Next minimum=    3.4544E-06  at reduced coord.    0.5333    0.4333    0.4333
   Integrated=    1.0000E+00
 Spin down density    [el/Bohr^3]
      Maximum=    0.0000E+00  at reduced coord.    0.9667    0.9667    0.9667
 Next maximum=    0.0000E+00  at reduced coord.    0.9333    0.9667    0.9667
      Minimum=    0.0000E+00  at reduced coord.    0.0000    0.0000    0.0000
 Next minimum=    0.0000E+00  at reduced coord.    0.0333    0.0000    0.0000
   Integrated=    0.0000E+00
 Magnetization (spin up - spin down) [el/Bohr^3]
      Maximum=    1.4053E-01  at reduced coord.    0.0000    0.0000    0.0000
 Next maximum=    1.2019E-01  at reduced coord.    0.0000    0.0000    0.9667
      Minimum=    3.4544E-06  at reduced coord.    0.4667    0.4333    0.4333
 Next minimum=    3.4544E-06  at reduced coord.    0.5333    0.4333    0.4333
   Integrated=    1.0000E+00
 Relative magnetization (=zeta, between -1 and 1)
      Maximum=    1.0000E+00  at reduced coord.    0.9667    0.9667    0.9667
 Next maximum=    1.0000E+00  at reduced coord.    0.9333    0.9667    0.9667
      Minimum=    1.0000E+00  at reduced coord.    0.0000    0.0000    0.0000
 Next minimum=    1.0000E+00  at reduced coord.    0.0333    0.0000    0.0000

 Cartesian components of stress tensor (hartree/bohr^3)
  sigma(1 1)=  1.80449486E-05  sigma(3 2)=  0.00000000E+00
  sigma(2 2)=  1.80449486E-05  sigma(3 1)=  0.00000000E+00
  sigma(3 3)=  1.80449486E-05  sigma(2 1)=  0.00000000E+00

-Cartesian components of stress tensor (GPa)         [Pressure= -5.3090E-01 GPa]
- sigma(1 1)=  5.30900628E-01  sigma(3 2)=  0.00000000E+00
- sigma(2 2)=  5.30900628E-01  sigma(3 1)=  0.00000000E+00
- sigma(3 3)=  5.30900628E-01  sigma(2 1)=  0.00000000E+00

== END DATASET(S) ==============================================================
================================================================================
  
 -outvars: echo values of variables after computation  --------
            acell      1.0000000000E+01  1.0000000000E+01  1.0000000000E+01 Bohr
              amu      1.00794000E+00
        bs_loband1          0
        bs_loband2          0       0
           diemac      2.00000000E+00
             ecut      1.00000000E+01 Hartree
           etotal1    -1.1058360644E+00
           etotal2    -4.7010531489E-01
            fcart1     1.8270533684E-04 -0.0000000000E+00 -0.0000000000E+00
                      -1.8270533684E-04 -0.0000000000E+00 -0.0000000000E+00
            fcart2    -0.0000000000E+00 -0.0000000000E+00 -0.0000000000E+00
-          fftalg         112
           ionmov1          3
           ionmov2          0
           istwfk        2
           jdtset        1    2
           kptopt           0
P           mkmem           1
            natom1          2
            natom2          1
            nband1          1
            nband2          1       1
           ndtset           2
            ngfft          30      30      30
             nkpt           1
           nspden1          1
           nspden2          2
           nsppol1          1
           nsppol2          2
            nstep          10
             nsym1         16
             nsym2         48
            ntime1         10
            ntime2          1
           ntypat           1
              occ1     2.000000
              occ2     1.000000
                       0.000000
           occopt1          1
           occopt2          2
        optforces           1
          spgroup1        123
          spgroup2        221
           spinat2     0.0000000000E+00  0.0000000000E+00  1.0000000000E+00
           strten1     4.2404680139E-05  3.4580303859E-05  3.4580303859E-05
                       0.0000000000E+00  0.0000000000E+00  0.0000000000E+00
           strten2     1.8044948612E-05  1.8044948612E-05  1.8044948612E-05
                       0.0000000000E+00  0.0000000000E+00  0.0000000000E+00
           symafm1       1    1    1    1    1    1    1    1    1    1
                         1    1    1    1    1    1
           symafm2       1    1    1    1    1    1    1    1    1    1
                         1    1    1    1    1    1    1    1    1    1
                         1    1    1    1    1    1    1    1    1    1
                         1    1    1    1    1    1    1    1    1    1
                         1    1    1    1    1    1    1    1
           symrel1     1  0  0   0  1  0   0  0  1      -1  0  0   0 -1  0   0  0 -1
                      -1  0  0   0  1  0   0  0 -1       1  0  0   0 -1  0   0  0  1
                      -1  0  0   0 -1  0   0  0  1       1  0  0   0  1  0   0  0 -1
                       1  0  0   0 -1  0   0  0 -1      -1  0  0   0  1  0   0  0  1
                       1  0  0   0  0  1   0  1  0      -1  0  0   0  0 -1   0 -1  0
                      -1  0  0   0  0  1   0 -1  0       1  0  0   0  0 -1   0  1  0
                      -1  0  0   0  0 -1   0  1  0       1  0  0   0  0  1   0 -1  0
                       1  0  0   0  0 -1   0 -1  0      -1  0  0   0  0  1   0  1  0
           symrel2     1  0  0   0  1  0   0  0  1      -1  0  0   0 -1  0   0  0 -1
                      -1  0  0   0  1  0   0  0 -1       1  0  0   0 -1  0   0  0  1
                      -1  0  0   0 -1  0   0  0  1       1  0  0   0  1  0   0  0 -1
                       1  0  0   0 -1  0   0  0 -1      -1  0  0   0  1  0   0  0  1
                       0  1  0   1  0  0   0  0  1       0 -1  0  -1  0  0   0  0 -1
                       0 -1  0   1  0  0   0  0 -1       0  1  0  -1  0  0   0  0  1
                       0 -1  0  -1  0  0   0  0  1       0  1  0   1  0  0   0  0 -1
                       0  1  0  -1  0  0   0  0 -1       0 -1  0   1  0  0   0  0  1
                       0  0  1   1  0  0   0  1  0       0  0 -1  -1  0  0   0 -1  0
                       0  0 -1   1  0  0   0 -1  0       0  0  1  -1  0  0   0  1  0
                       0  0 -1  -1  0  0   0  1  0       0  0  1   1  0  0   0 -1  0
                       0  0  1  -1  0  0   0 -1  0       0  0 -1   1  0  0   0  1  0
                       1  0  0   0  0  1   0  1  0      -1  0  0   0  0 -1   0 -1  0
                      -1  0  0   0  0  1   0 -1  0       1  0  0   0  0 -1   0  1  0
                      -1  0  0   0  0 -1   0  1  0       1  0  0   0  0  1   0 -1  0
                       1  0  0   0  0 -1   0 -1  0      -1  0  0   0  0  1   0  1  0
                       0  1  0   0  0  1   1  0  0       0 -1  0   0  0 -1  -1  0  0
                       0 -1  0   0  0  1  -1  0  0       0  1  0   0  0 -1   1  0  0
                       0 -1  0   0  0 -1   1  0  0       0  1  0   0  0  1  -1  0  0
                       0  1  0   0  0 -1  -1  0  0       0 -1  0   0  0  1   1  0  0
                       0  0  1   0  1  0   1  0  0       0  0 -1   0 -1  0  -1  0  0
                       0  0 -1   0  1  0  -1  0  0       0  0  1   0 -1  0   1  0  0
                       0  0 -1   0 -1  0   1  0  0       0  0  1   0  1  0  -1  0  0
                       0  0  1   0 -1  0  -1  0  0       0  0 -1   0  1  0   1  0  0
            tnons1     0.0000000  0.0000000  0.0000000     0.0000000  0.0000000  0.0000000
                       0.0000000  0.0000000  0.0000000     0.0000000  0.0000000  0.0000000
                       0.0000000  0.0000000  0.0000000     0.0000000  0.0000000  0.0000000
                       0.0000000  0.0000000  0.0000000     0.0000000  0.0000000  0.0000000
                       0.0000000  0.0000000  0.0000000     0.0000000  0.0000000  0.0000000
                       0.0000000  0.0000000  0.0000000     0.0000000  0.0000000  0.0000000
                       0.0000000  0.0000000  0.0000000     0.0000000  0.0000000  0.0000000
                       0.0000000  0.0000000  0.0000000     0.0000000  0.0000000  0.0000000
            tnons2     0.0000000  0.0000000  0.0000000     0.0000000  0.0000000  0.0000000
                       0.0000000  0.0000000  0.0000000     0.0000000  0.0000000  0.0000000
                       0.0000000  0.0000000  0.0000000     0.0000000  0.0000000  0.0000000
                       0.0000000  0.0000000  0.0000000     0.0000000  0.0000000  0.0000000
                       0.0000000  0.0000000  0.0000000     0.0000000  0.0000000  0.0000000
                       0.0000000  0.0000000  0.0000000     0.0000000  0.0000000  0.0000000
                       0.0000000  0.0000000  0.0000000     0.0000000  0.0000000  0.0000000
                       0.0000000  0.0000000  0.0000000     0.0000000  0.0000000  0.0000000
                       0.0000000  0.0000000  0.0000000     0.0000000  0.0000000  0.0000000
                       0.0000000  0.0000000  0.0000000     0.0000000  0.0000000  0.0000000
                       0.0000000  0.0000000  0.0000000     0.0000000  0.0000000  0.0000000
                       0.0000000  0.0000000  0.0000000     0.0000000  0.0000000  0.0000000
                       0.0000000  0.0000000  0.0000000     0.0000000  0.0000000  0.0000000
                       0.0000000  0.0000000  0.0000000     0.0000000  0.0000000  0.0000000
                       0.0000000  0.0000000  0.0000000     0.0000000  0.0000000  0.0000000
                       0.0000000  0.0000000  0.0000000     0.0000000  0.0000000  0.0000000
                       0.0000000  0.0000000  0.0000000     0.0000000  0.0000000  0.0000000
                       0.0000000  0.0000000  0.0000000     0.0000000  0.0000000  0.0000000
                       0.0000000  0.0000000  0.0000000     0.0000000  0.0000000  0.0000000
                       0.0000000  0.0000000  0.0000000     0.0000000  0.0000000  0.0000000
                       0.0000000  0.0000000  0.0000000     0.0000000  0.0000000  0.0000000
                       0.0000000  0.0000000  0.0000000     0.0000000  0.0000000  0.0000000
                       0.0000000  0.0000000  0.0000000     0.0000000  0.0000000  0.0000000
                       0.0000000  0.0000000  0.0000000     0.0000000  0.0000000  0.0000000
           toldfe1     0.00000000E+00 Hartree
           toldfe2     1.00000000E-06 Hartree
           toldff1     5.00000000E-05
           toldff2     0.00000000E+00
           tolmxf1     5.00000000E-04
           tolmxf2     5.00000000E-05
            typat1     1  1
            typat2     1
           xangst1    -4.0265631318E-01  0.0000000000E+00  0.0000000000E+00
                       4.0265631318E-01  0.0000000000E+00  0.0000000000E+00
           xangst2     0.0000000000E+00  0.0000000000E+00  0.0000000000E+00
            xcart1    -7.6091015759E-01  0.0000000000E+00  0.0000000000E+00
                       7.6091015759E-01  0.0000000000E+00  0.0000000000E+00
            xcart2     0.0000000000E+00  0.0000000000E+00  0.0000000000E+00
             xred1    -7.6091015759E-02  0.0000000000E+00  0.0000000000E+00
                       7.6091015759E-02  0.0000000000E+00  0.0000000000E+00
             xred2     0.0000000000E+00  0.0000000000E+00  0.0000000000E+00
            znucl        1.00000

================================================================================
  

================================================================================

 Suggested references for the acknowledgment of ABINIT usage.

 The users of ABINIT have little formal obligations with respect to the ABINIT group
 (those specified in the GNU General Public License, http://www.gnu.org/copyleft/gpl.txt).
 However, it is common practice in the scientific literature,
 to acknowledge the efforts of people that have made the research possible.
 In this spirit, please find below suggested citations of work written by ABINIT developers,
 corresponding to implementations inside of ABINIT that you have used in the present run.
 Note also that it will be of great value to readers of publications presenting these results,
 to read papers enabling them to understand the theoretical formalism and details
 of the ABINIT implementation.
 For information on why they are suggested, see also http://www.abinit.org/about/?text=acknowledgments.
-
- [1] Recent developments in the ABINIT software package.
- Computer Phys. Comm. 205, 106 (2016).
- X.Gonze, F.Jollet, F.Abreu Araujo, D.Adams, B.Amadon, T.Applencourt,
- C.Audouze, J.-M.Beuken, J.Bieder, A.Bokhanchuk, E.Bousquet, F.Bruneval
- D.Caliste, M.Cote, F.Dahm, F.Da Pieve, M.Delaveau, M.Di Gennaro,
- B.Dorado, C.Espejo, G.Geneste, L.Genovese, A.Gerossier, M.Giantomassi,
- Y.Gillet, D.R.Hamann, L.He, G.Jomard, J.Laflamme Janssen, S.Le Roux,
- A.Levitt, A.Lherbier, F.Liu, I.Lukacevic, A.Martin, C.Martins,
- M.J.T.Oliveira, S.Ponce, Y.Pouillon, T.Rangel, G.-M.Rignanese,
- A.H.Romero, B.Rousseau, O.Rubel, A.A.Shukri, M.Stankovski, M.Torrent,
- M.J.Van Setten, B.Van Troeye, M.J.Verstraete, D.Waroquier, J.Wiktor,
- B.Xue, A.Zhou, J.W.Zwanziger.
- Comment : the fourth generic paper describing the ABINIT project.
- Note that a version of this paper, that is not formatted for Computer Phys. Comm. 
- is available at http://www.abinit.org/about/ABINIT16.pdf .
- The licence allows the authors to put it on the Web.
-
- [2] ABINIT : First-principles approach of materials and nanosystem properties.
- Computer Phys. Comm. 180, 2582-2615 (2009).
- X. Gonze, B. Amadon, P.-M. Anglade, J.-M. Beuken, F. Bottin, P. Boulanger, F. Bruneval,
- D. Caliste, R. Caracas, M. Cote, T. Deutsch, L. Genovese, Ph. Ghosez, M. Giantomassi
- S. Goedecker, D.R. Hamann, P. Hermet, F. Jollet, G. Jomard, S. Leroux, M. Mancini, S. Mazevet,
- M.J.T. Oliveira, G. Onida, Y. Pouillon, T. Rangel, G.-M. Rignanese, D. Sangalli, R. Shaltaf,
- M. Torrent, M.J. Verstraete, G. Zerah, J.W. Zwanziger
- Comment : the third generic paper describing the ABINIT project.
- Note that a version of this paper, that is not formatted for Computer Phys. Comm. 
- is available at http://www.abinit.org/about/ABINIT_CPC_v10.pdf .
- The licence allows the authors to put it on the Web.
-
- [3] A brief introduction to the ABINIT software package.
- Z. Kristallogr. 220, 558-562 (2005).
- X. Gonze, G.-M. Rignanese, M. Verstraete, J.-M. Beuken, Y. Pouillon, R. Caracas, F. Jollet,
- M. Torrent, G. Zerah, M. Mikami, Ph. Ghosez, M. Veithen, J.-Y. Raty, V. Olevano, F. Bruneval,
- L. Reining, R. Godby, G. Onida, D.R. Hamann, and D.C. Allan.
- Comment : the second generic paper describing the ABINIT project. Note that this paper
- should be cited especially if you are using the GW part of ABINIT, as several authors
- of this part are not in the list of authors of the first or third paper.
- The .pdf of the latter paper is available at http://www.abinit.org/about/zfk_0505-06_558-562.pdf.
- Note that it should not redistributed (Copyright by Oldenburg Wissenshaftverlag,
- the licence allows the authors to put it on the Web).
-
- And optionally:
-
- [4] First-principles computation of material properties : the ABINIT software project. 
- X. Gonze, J.-M. Beuken, R. Caracas, F. Detraux, M. Fuchs, G.-M. Rignanese, L. Sindic,
- M. Verstraete, G. Zerah, F. Jollet, M. Torrent, A. Roy, M. Mikami, Ph. Ghosez, J.-Y. Raty, D.C. Allan.
- Computational Materials Science 25, 478-492 (2002). http://dx.doi.org/10.1016/S0927-0256(02)00325-7
- Comment : the original paper describing the ABINIT project.
  Asked to delete not existent file: H2_STATUS

 Calculation completed.
.Delivered   7 WARNINGs and   6 COMMENTs to log file.

--- !FinalSummary
program: abinit
version: 8.0.8
start_datetime: Wed Jul 27 09:50:08 2016
end_datetime: Wed Jul 27 09:50:09 2016
overall_cpu_time:           0.8
overall_wall_time:           0.8
exit_requested_by_user: no 
timelimit: 0
pseudos: 
    H   : 941c50226b9f11130e30f8bcf04cfe5b
usepaw: 0
mpi_procs: 1
omp_threads: 1
num_warnings: 7
num_comments: 6
...
